                         Program Version 5.0.3 -  RELEASE  -
|  1> !B3LYP D3BJ 6-311G
|  2> !RIJCOSX AutoAux printbasis
|  3> !Opt Freq
|  4> !DEFGRID3 TightSCF
|  5> *xyz -1 2
|  6> N 0.00000000000000 0.00000000000000 0.00000000000000
|  7> N 1.50000000000000 0.00000000000000 0.00000000000000
|  8> **                         ****END OF INPUT****
 Total Charge           Charge          ....   -1
 Multiplicity           Mult            ....    2
 Number of Electrons    NEL             ....   15
Dispersion correction           -0.000749828
FINAL SINGLE POINT ENERGY      -109.310373744820
Dispersion correction            ... done
Dispersion correction           -0.000751322
FINAL SINGLE POINT ENERGY      -109.358256118779
Dispersion correction            ... done
Dispersion correction           -0.000752268
FINAL SINGLE POINT ENERGY      -109.372185123979
Dispersion correction            ... done
FINAL SINGLE POINT ENERGY      -109.374194938627
Dispersion correction           -0.000752077
FINAL SINGLE POINT ENERGY      -109.374582168733
Dispersion correction            ... done
Dispersion correction           -0.000752089
FINAL SINGLE POINT ENERGY      -109.374588618066
Dispersion correction            ... done
                    ***********************HURRAY********************

CARTESIAN COORDINATES (ANGSTROEM)
---------------------------------
  N      0.139396    0.000000    0.000000
  N      1.360604    0.000000    0.000000

 Multiplicity           Mult            ....    2
 Number of Electrons    NEL             ....   15
 Basis Dimension        Dim             ....   26

ORBITAL ENERGIES
----------------
                 SPIN UP ORBITALS
  NO   OCC          E(Eh)            E(eV)
   0   1.0000     -14.012270      -381.2933
   1   1.0000     -14.011714      -381.2781
   2   1.0000      -0.693065       -18.8593
   3   1.0000      -0.212777        -5.7899
   4   1.0000      -0.085555        -2.3281
   5   1.0000      -0.063480        -1.7274
   6   1.0000      -0.044316        -1.2059
   7   1.0000       0.191112         5.2004
   8   0.0000       0.286414         7.7937
   9   0.0000       0.636747        17.3268
  10   0.0000       0.846147        23.0248
  11   0.0000       0.846711        23.0402
  12   0.0000       0.850283        23.1374

                 SPIN DOWN ORBITALS
  NO   OCC          E(Eh)            E(eV)
   0   1.0000     -14.001197      -380.9920
   1   1.0000     -14.000561      -380.9746
   2   1.0000      -0.670122       -18.2350
   3   1.0000      -0.177730        -4.8363
   4   1.0000      -0.052253        -1.4219
   5   1.0000      -0.027415        -0.7460
   6   1.0000      -0.018023        -0.4904
   7   0.0000       0.300028         8.1642
   8   0.0000       0.331537         9.0216
   9   0.0000       0.650353        17.6970
  10   0.0000       0.849711        23.1218
  11   0.0000       0.856510        23.3068

MULLIKEN ATOMIC CHARGES AND SPIN POPULATIONS
--------------------------------------------
   0 N :   -0.499999    0.500000
   1 N :   -0.500001    0.500000
Sum of atomic charges         :   -1.0000000

LOEWDIN ATOMIC CHARGES AND SPIN POPULATIONS
-------------------------------------------
   0 N :   -0.499999    0.500000
   1 N :   -0.500001    0.500000

  Mayer bond orders larger than 0.100000
B(  0-N ,  1-N ) :   2.2180

Dispersion correction           -0.000752088
FINAL SINGLE POINT ENERGY      -109.374588637501

DIPOLE MOMENT
-------------
                                X             Y             Z
Electronic contribution:     -0.00000      -0.00000      -0.00000
Nuclear contribution   :     -0.00000       0.00000       0.00000
                        -----------------------------------------
Total Dipole Moment    :     -0.00000      -0.00000      -0.00000
                        -----------------------------------------
Magnitude (a.u.)       :      0.00000
Magnitude (Debye)      :      0.00001

Dispersion correction in the Hessian             ... done   (      0.2 sec)

VIBRATIONAL FREQUENCIES
-----------------------

Scaling factor for frequencies =  1.000000000  (already applied!)

   0:         0.00 cm**-1
   1:         0.00 cm**-1
   2:         0.00 cm**-1
   3:         0.00 cm**-1
   4:         0.00 cm**-1
   5:      1762.08 cm**-1

IR SPECTRUM
-----------

 Mode   freq       eps      Int      T**2         TX        TY        TZ
       cm**-1   L/(mol*cm) km/mol    a.u.
----------------------------------------------------------------------------
  5:   1762.08   0.000000    0.00  0.000000  ( 0.000006  0.000000  0.000000)

--------------------------
THERMOCHEMISTRY AT 298.15K
--------------------------

Temperature         ... 298.15 K
Pressure            ... 1.00 atm
Total Mass          ... 28.01 AMU
The molecule is recognized as being linear

Throughout the following assumptions are being made:
  (1) The electronic state is orbitally nondegenerate
      but the spin degeneracy is treated
  (2) There are no thermally accessible electronically excited states
  (3) Hindered rotations indicated by low frequency modes are not
      treated as such but are treated as vibrations and this may
      cause some error
  (4) All equations used are the standard statistical mechanics
      equations for an ideal gas
  (5) All vibrations are strictly harmonic

freq.    1762.08  E(vib)   ...       0.00

------------
INNER ENERGY
------------

The inner energy is: U= E(el) + E(ZPE) + E(vib) + E(rot) + E(trans)
    E(el)   - is the total energy from the electronic structure calculation
              = E(kin-el) + E(nuc-el) + E(el-el) + E(nuc-nuc)
    E(ZPE)  - the the zero temperature vibrational energy from the frequency calculation
    E(vib)  - the the finite temperature correction to E(ZPE) due to population
              of excited vibrational states
    E(rot)  - is the rotational thermal energy
    E(trans)- is the translational thermal energy

Summary of contributions to the inner energy U:
Electronic energy                ...   -109.37458864 Eh
Zero point energy                ...      0.00401432 Eh       2.52 kcal/mol
Thermal vibrational correction   ...      0.00000163 Eh       0.00 kcal/mol
Thermal rotational correction    ...      0.00094418 Eh       0.59 kcal/mol
Thermal translational correction ...      0.00141627 Eh       0.89 kcal/mol
-----------------------------------------------------------------------
Total thermal energy                   -109.36821223 Eh

Summary of corrections to the electronic energy:
(perhaps to be used in another calculation)
Total thermal correction                  0.00236208 Eh       1.48 kcal/mol
Non-thermal (ZPE) correction              0.00401432 Eh       2.52 kcal/mol
-----------------------------------------------------------------------
Total correction                          0.00637640 Eh       4.00 kcal/mol

--------
ENTHALPY
--------

The enthalpy is H = U + kB*T
                kB is Boltzmann's constant
Total free energy                 ...   -109.36821223 Eh
Thermal Enthalpy correction       ...      0.00094421 Eh       0.59 kcal/mol
-----------------------------------------------------------------------
Total Enthalpy                    ...   -109.36726802 Eh

Note: Rotational entropy computed according to Herzberg
Infrared and Raman Spectra, Chapter V,1, Van Nostrand Reinhold, 1945
Point Group:  Dinfh, Symmetry Number:   2
Rotational constants in cm-1:     0.000000     1.613998     1.613998

Vibrational entropy computed according to the QRRHO of S. Grimme
Chem.Eur.J. 2012 18 9955

-------
ENTROPY
-------

The entropy contributions are T*S = T*(S(el)+S(vib)+S(rot)+S(trans))
     S(el)   - electronic entropy
     S(vib)  - vibrational entropy
     S(rot)  - rotational entropy
     S(trans)- translational entropy
The entropies will be listed as multiplied by the temperature to get
units of energy

Electronic entropy                ...      0.00065446 Eh      0.41 kcal/mol
Vibrational entropy               ...      0.00000182 Eh      0.00 kcal/mol
Rotational entropy                ...      0.00487381 Eh      3.06 kcal/mol
Translational entropy             ...      0.01706909 Eh     10.71 kcal/mol
-----------------------------------------------------------------------
Final entropy term                ...      0.02259918 Eh     14.18 kcal/mol

-------------------
GIBBS FREE ENERGY
-------------------

The Gibbs free energy is G = H - T*S

Total enthalpy                    ...   -109.36726802 Eh
Total entropy correction          ...     -0.02259918 Eh    -14.18 kcal/mol
-----------------------------------------------------------------------
Final Gibbs free energy         ...   -109.38986720 Eh

For completeness - the Gibbs free energy minus the electronic energy
G-E(el)                           ...     -0.01527856 Eh     -9.59 kcal/mol

                             ****ORCA TERMINATED NORMALLY****
TOTAL RUN TIME: 0 days 0 hours 0 minutes 15 seconds 872 msec
