                         Program Version 5.0.3 -  RELEASE  -
|  1> !B3LYP D3BJ 6-311G
|  2> !RIJCOSX AutoAux printbasis
|  3> !Opt Freq
|  4> !DEFGRID3 TightSCF
|  5> *xyz 0 1
|  6> N 0.00000000000000 0.00000000000000 0.00000000000000
|  7> N 1.50000000000000 0.00000000000000 0.00000000000000
|  8> **                         ****END OF INPUT****
 Total Charge           Charge          ....    0
 Multiplicity           Mult            ....    1
 Number of Electrons    NEL             ....   14
Dispersion correction           -0.000749828
FINAL SINGLE POINT ENERGY      -109.285657098635
Dispersion correction            ... done
Dispersion correction           -0.000751322
FINAL SINGLE POINT ENERGY      -109.372370897624
Dispersion correction            ... done
Dispersion correction           -0.000752268
FINAL SINGLE POINT ENERGY      -109.440976409648
Dispersion correction            ... done
FINAL SINGLE POINT ENERGY      -109.428199156251
FINAL SINGLE POINT ENERGY      -109.450646635243
FINAL SINGLE POINT ENERGY      -109.451218512820
Dispersion correction           -0.000752523
FINAL SINGLE POINT ENERGY      -109.451264750608
Dispersion correction            ... done
Dispersion correction           -0.000752522
FINAL SINGLE POINT ENERGY      -109.451264901287
Dispersion correction            ... done
                    ***********************HURRAY********************

CARTESIAN COORDINATES (ANGSTROEM)
---------------------------------
  N      0.193431    0.000000    0.000000
  N      1.306569    0.000000    0.000000

 Multiplicity           Mult            ....    1
 Number of Electrons    NEL             ....   14
 Basis Dimension        Dim             ....   26

ORBITAL ENERGIES
----------------

  NO   OCC          E(Eh)            E(eV)
   0   2.0000     -14.433866      -392.7655
   1   2.0000     -14.432309      -392.7231
   2   2.0000      -1.167172       -31.7604
   3   2.0000      -0.549477       -14.9520
   4   2.0000      -0.472604       -12.8602
   5   2.0000      -0.472604       -12.8602
   6   2.0000      -0.424202       -11.5431
   7   0.0000      -0.039729        -1.0811
   8   0.0000      -0.039729        -1.0811
   9   0.0000       0.387335        10.5399
  10   0.0000       0.510817        13.9000
  11   0.0000       0.510817        13.9000

MULLIKEN ATOMIC CHARGES
-----------------------
   0 N :    0.000000
   1 N :   -0.000000
Sum of atomic charges:    0.0000000

LOEWDIN ATOMIC CHARGES
----------------------
   0 N :    0.000000
   1 N :   -0.000000

  Mayer bond orders larger than 0.100000
B(  0-N ,  1-N ) :   2.6195

Dispersion correction           -0.000752522
FINAL SINGLE POINT ENERGY      -109.451264901298

DIPOLE MOMENT
-------------
                                X             Y             Z
Electronic contribution:     -0.00000       0.00000      -0.00000
Nuclear contribution   :     -0.00000       0.00000       0.00000
                        -----------------------------------------
Total Dipole Moment    :     -0.00000       0.00000      -0.00000
                        -----------------------------------------
Magnitude (a.u.)       :      0.00000
Magnitude (Debye)      :      0.00000

Dispersion correction in the Hessian             ... done   (      0.2 sec)

VIBRATIONAL FREQUENCIES
-----------------------

Scaling factor for frequencies =  1.000000000  (already applied!)

   0:         0.00 cm**-1
   1:         0.00 cm**-1
   2:         0.00 cm**-1
   3:         0.00 cm**-1
   4:         0.00 cm**-1
   5:      2301.86 cm**-1

IR SPECTRUM
-----------

 Mode   freq       eps      Int      T**2         TX        TY        TZ
       cm**-1   L/(mol*cm) km/mol    a.u.
----------------------------------------------------------------------------
  5:   2301.86   0.000000    0.00  0.000000  (-0.000000 -0.000000  0.000000)

--------------------------
THERMOCHEMISTRY AT 298.15K
--------------------------

Temperature         ... 298.15 K
Pressure            ... 1.00 atm
Total Mass          ... 28.01 AMU
The molecule is recognized as being linear

Throughout the following assumptions are being made:
  (1) The electronic state is orbitally nondegenerate
  (2) There are no thermally accessible electronically excited states
  (3) Hindered rotations indicated by low frequency modes are not
      treated as such but are treated as vibrations and this may
      cause some error
  (4) All equations used are the standard statistical mechanics
      equations for an ideal gas
  (5) All vibrations are strictly harmonic

freq.    2301.86  E(vib)   ...       0.00

------------
INNER ENERGY
------------

The inner energy is: U= E(el) + E(ZPE) + E(vib) + E(rot) + E(trans)
    E(el)   - is the total energy from the electronic structure calculation
              = E(kin-el) + E(nuc-el) + E(el-el) + E(nuc-nuc)
    E(ZPE)  - the the zero temperature vibrational energy from the frequency calculation
    E(vib)  - the the finite temperature correction to E(ZPE) due to population
              of excited vibrational states
    E(rot)  - is the rotational thermal energy
    E(trans)- is the translational thermal energy

Summary of contributions to the inner energy U:
Electronic energy                ...   -109.45126490 Eh
Zero point energy                ...      0.00524403 Eh       3.29 kcal/mol
Thermal vibrational correction   ...      0.00000016 Eh       0.00 kcal/mol
Thermal rotational correction    ...      0.00094418 Eh       0.59 kcal/mol
Thermal translational correction ...      0.00141627 Eh       0.89 kcal/mol
-----------------------------------------------------------------------
Total thermal energy                   -109.44366027 Eh

Summary of corrections to the electronic energy:
(perhaps to be used in another calculation)
Total thermal correction                  0.00236061 Eh       1.48 kcal/mol
Non-thermal (ZPE) correction              0.00524403 Eh       3.29 kcal/mol
-----------------------------------------------------------------------
Total correction                          0.00760464 Eh       4.77 kcal/mol

--------
ENTHALPY
--------

The enthalpy is H = U + kB*T
                kB is Boltzmann's constant
Total free energy                 ...   -109.44366027 Eh
Thermal Enthalpy correction       ...      0.00094421 Eh       0.59 kcal/mol
-----------------------------------------------------------------------
Total Enthalpy                    ...   -109.44271606 Eh

Note: Rotational entropy computed according to Herzberg
Infrared and Raman Spectra, Chapter V,1, Van Nostrand Reinhold, 1945
Point Group:  Dinfh, Symmetry Number:   2
Rotational constants in cm-1:     0.000000     1.942605     1.942605

Vibrational entropy computed according to the QRRHO of S. Grimme
Chem.Eur.J. 2012 18 9955

-------
ENTROPY
-------

The entropy contributions are T*S = T*(S(el)+S(vib)+S(rot)+S(trans))
     S(el)   - electronic entropy
     S(vib)  - vibrational entropy
     S(rot)  - rotational entropy
     S(trans)- translational entropy
The entropies will be listed as multiplied by the temperature to get
units of energy

Electronic entropy                ...      0.00000000 Eh      0.00 kcal/mol
Vibrational entropy               ...      0.00000017 Eh      0.00 kcal/mol
Rotational entropy                ...      0.00469884 Eh      2.95 kcal/mol
Translational entropy             ...      0.01706909 Eh     10.71 kcal/mol
-----------------------------------------------------------------------
Final entropy term                ...      0.02176810 Eh     13.66 kcal/mol

-------------------
GIBBS FREE ENERGY
-------------------

The Gibbs free energy is G = H - T*S

Total enthalpy                    ...   -109.44271606 Eh
Total entropy correction          ...     -0.02176810 Eh    -13.66 kcal/mol
-----------------------------------------------------------------------
Final Gibbs free energy         ...   -109.46448416 Eh

For completeness - the Gibbs free energy minus the electronic energy
G-E(el)                           ...     -0.01321925 Eh     -8.30 kcal/mol

                             ****ORCA TERMINATED NORMALLY****
TOTAL RUN TIME: 0 days 0 hours 0 minutes 15 seconds 607 msec
