                         Program Version 5.0.3 -  RELEASE  -
|  1> !B3LYP D3BJ 6-311G
|  2> !RIJCOSX AutoAux printbasis
|  3> !Opt Freq
|  4> !DEFGRID3 TightSCF
|  5> *xyz 1 2
|  6> N 0.00000000000000 0.00000000000000 0.00000000000000
|  7> N 1.50000000000000 0.00000000000000 0.00000000000000
|  8> **                         ****END OF INPUT****
 Total Charge           Charge          ....    1
 Multiplicity           Mult            ....    2
 Number of Electrons    NEL             ....   13
Dispersion correction           -0.000749828
FINAL SINGLE POINT ENERGY      -108.765405978949
Dispersion correction            ... done
Dispersion correction           -0.000751322
FINAL SINGLE POINT ENERGY      -108.815464033396
Dispersion correction            ... done
Dispersion correction           -0.000752268
FINAL SINGLE POINT ENERGY      -108.837232024687
Dispersion correction            ... done
FINAL SINGLE POINT ENERGY      -108.837583354236
Dispersion correction           -0.000752184
FINAL SINGLE POINT ENERGY      -108.837766675941
Dispersion correction            ... done
Dispersion correction           -0.000752187
FINAL SINGLE POINT ENERGY      -108.837767467684
Dispersion correction            ... done
                    ***********************HURRAY********************

CARTESIAN COORDINATES (ANGSTROEM)
---------------------------------
  N      0.149690    0.000000    0.000000
  N      1.350310    0.000000    0.000000

 Multiplicity           Mult            ....    2
 Number of Electrons    NEL             ....   13
 Basis Dimension        Dim             ....   26

ORBITAL ENERGIES
----------------
                 SPIN UP ORBITALS
  NO   OCC          E(Eh)            E(eV)
   0   1.0000     -14.940589      -406.5541
   1   1.0000     -14.939776      -406.5320
   2   1.0000      -1.602382       -43.6030
   3   1.0000      -0.997831       -27.1524
   4   1.0000      -0.914338       -24.8804
   5   1.0000      -0.875650       -23.8277
   6   1.0000      -0.834239       -22.7008
   7   0.0000      -0.534267       -14.5381
   8   0.0000      -0.495948       -13.4954
   9   0.0000      -0.045947        -1.2503
  10   0.0000       0.156022         4.2456
  11   0.0000       0.177168         4.8210

                 SPIN DOWN ORBITALS
  NO   OCC          E(Eh)            E(eV)
   0   1.0000     -14.929878      -406.2626
   1   1.0000     -14.929156      -406.2430
   2   1.0000      -1.558228       -42.4015
   3   1.0000      -0.964028       -26.2325
   4   1.0000      -0.860560       -23.4170
   5   1.0000      -0.817397       -22.2425
   6   0.0000      -0.749323       -20.3901
   7   0.0000      -0.481475       -13.1016
   8   0.0000      -0.443025       -12.0553
   9   0.0000      -0.024661        -0.6711
  10   0.0000       0.182344         4.9618

MULLIKEN ATOMIC CHARGES AND SPIN POPULATIONS
--------------------------------------------
   0 N :    0.500000    0.500000
   1 N :    0.500000    0.500000
Sum of atomic charges         :    1.0000000

LOEWDIN ATOMIC CHARGES AND SPIN POPULATIONS
-------------------------------------------
   0 N :    0.500001    0.500000
   1 N :    0.499999    0.500000

  Mayer bond orders larger than 0.100000
B(  0-N ,  1-N ) :   2.0498

Dispersion correction           -0.000752187
FINAL SINGLE POINT ENERGY      -108.837767468533

DIPOLE MOMENT
-------------
                                X             Y             Z
Electronic contribution:     -0.00000      -0.00000      -0.00002
Nuclear contribution   :     -0.00000       0.00000       0.00000
                        -----------------------------------------
Total Dipole Moment    :     -0.00000      -0.00000      -0.00002
                        -----------------------------------------
Magnitude (a.u.)       :      0.00002
Magnitude (Debye)      :      0.00005

Dispersion correction in the Hessian             ... done   (      0.2 sec)

VIBRATIONAL FREQUENCIES
-----------------------

Scaling factor for frequencies =  1.000000000  (already applied!)

   0:         0.00 cm**-1
   1:         0.00 cm**-1
   2:         0.00 cm**-1
   3:         0.00 cm**-1
   4:         0.00 cm**-1
   5:      1815.72 cm**-1

IR SPECTRUM
-----------

 Mode   freq       eps      Int      T**2         TX        TY        TZ
       cm**-1   L/(mol*cm) km/mol    a.u.
----------------------------------------------------------------------------
  5:   1815.72   0.000000    0.00  0.000000  (-0.000000  0.000000 -0.000003)

--------------------------
THERMOCHEMISTRY AT 298.15K
--------------------------

Temperature         ... 298.15 K
Pressure            ... 1.00 atm
Total Mass          ... 28.01 AMU
The molecule is recognized as being linear

Throughout the following assumptions are being made:
  (1) The electronic state is orbitally nondegenerate
      but the spin degeneracy is treated
  (2) There are no thermally accessible electronically excited states
  (3) Hindered rotations indicated by low frequency modes are not
      treated as such but are treated as vibrations and this may
      cause some error
  (4) All equations used are the standard statistical mechanics
      equations for an ideal gas
  (5) All vibrations are strictly harmonic

freq.    1815.72  E(vib)   ...       0.00

------------
INNER ENERGY
------------

The inner energy is: U= E(el) + E(ZPE) + E(vib) + E(rot) + E(trans)
    E(el)   - is the total energy from the electronic structure calculation
              = E(kin-el) + E(nuc-el) + E(el-el) + E(nuc-nuc)
    E(ZPE)  - the the zero temperature vibrational energy from the frequency calculation
    E(vib)  - the the finite temperature correction to E(ZPE) due to population
              of excited vibrational states
    E(rot)  - is the rotational thermal energy
    E(trans)- is the translational thermal energy

Summary of contributions to the inner energy U:
Electronic energy                ...   -108.83776747 Eh
Zero point energy                ...      0.00413651 Eh       2.60 kcal/mol
Thermal vibrational correction   ...      0.00000130 Eh       0.00 kcal/mol
Thermal rotational correction    ...      0.00094418 Eh       0.59 kcal/mol
Thermal translational correction ...      0.00141627 Eh       0.89 kcal/mol
-----------------------------------------------------------------------
Total thermal energy                   -108.83126922 Eh

Summary of corrections to the electronic energy:
(perhaps to be used in another calculation)
Total thermal correction                  0.00236175 Eh       1.48 kcal/mol
Non-thermal (ZPE) correction              0.00413651 Eh       2.60 kcal/mol
-----------------------------------------------------------------------
Total correction                          0.00649825 Eh       4.08 kcal/mol

--------
ENTHALPY
--------

The enthalpy is H = U + kB*T
                kB is Boltzmann's constant
Total free energy                 ...   -108.83126922 Eh
Thermal Enthalpy correction       ...      0.00094421 Eh       0.59 kcal/mol
-----------------------------------------------------------------------
Total Enthalpy                    ...   -108.83032501 Eh

Note: Rotational entropy computed according to Herzberg
Infrared and Raman Spectra, Chapter V,1, Van Nostrand Reinhold, 1945
Point Group:  Dinfh, Symmetry Number:   2
Rotational constants in cm-1:     0.000000     1.669823     1.669823

Vibrational entropy computed according to the QRRHO of S. Grimme
Chem.Eur.J. 2012 18 9955

-------
ENTROPY
-------

The entropy contributions are T*S = T*(S(el)+S(vib)+S(rot)+S(trans))
     S(el)   - electronic entropy
     S(vib)  - vibrational entropy
     S(rot)  - rotational entropy
     S(trans)- translational entropy
The entropies will be listed as multiplied by the temperature to get
units of energy

Electronic entropy                ...      0.00065446 Eh      0.41 kcal/mol
Vibrational entropy               ...      0.00000144 Eh      0.00 kcal/mol
Rotational entropy                ...      0.00484171 Eh      3.04 kcal/mol
Translational entropy             ...      0.01706909 Eh     10.71 kcal/mol
-----------------------------------------------------------------------
Final entropy term                ...      0.02256669 Eh     14.16 kcal/mol

-------------------
GIBBS FREE ENERGY
-------------------

The Gibbs free energy is G = H - T*S

Total enthalpy                    ...   -108.83032501 Eh
Total entropy correction          ...     -0.02256669 Eh    -14.16 kcal/mol
-----------------------------------------------------------------------
Final Gibbs free energy         ...   -108.85289170 Eh

For completeness - the Gibbs free energy minus the electronic energy
G-E(el)                           ...     -0.01512423 Eh     -9.49 kcal/mol

                             ****ORCA TERMINATED NORMALLY****
TOTAL RUN TIME: 0 days 0 hours 0 minutes 15 seconds 628 msec
