                         Program Version 5.0.3 -  RELEASE  -
|  1> !B3LYP D3BJ 6-311G
|  2> !RIJCOSX AutoAux printbasis
|  3> !Opt Freq
|  4> !DEFGRID3 TightSCF
|  5> *xyz 0 1
|  6> C 0.00000000000000 0.00000000000000 0.00000000000000
|  7> O 1.50000000000000 0.00000000000000 0.00000000000000
|  8> **                         ****END OF INPUT****
 Total Charge           Charge          ....    0
 Multiplicity           Mult            ....    1
 Number of Electrons    NEL             ....   14
Dispersion correction           -0.000726330
FINAL SINGLE POINT ENERGY      -113.128700829737
Dispersion correction            ... done
Dispersion correction           -0.000726849
FINAL SINGLE POINT ENERGY      -113.197270850634
Dispersion correction            ... done
Dispersion correction           -0.000727582
FINAL SINGLE POINT ENERGY      -113.243212759937
Dispersion correction            ... done
FINAL SINGLE POINT ENERGY      -113.242942402836
FINAL SINGLE POINT ENERGY      -113.245407788897
Dispersion correction           -0.000727698
FINAL SINGLE POINT ENERGY      -113.245438744942
Dispersion correction            ... done
Dispersion correction           -0.000727699
FINAL SINGLE POINT ENERGY      -113.245439173873
Dispersion correction            ... done
                    ***********************HURRAY********************

CARTESIAN COORDINATES (ANGSTROEM)
---------------------------------
  C      0.176256    0.000000    0.000000
  O      1.323744    0.000000    0.000000

 Multiplicity           Mult            ....    1
 Number of Electrons    NEL             ....   14
 Basis Dimension        Dim             ....   26

ORBITAL ENERGIES
----------------

  NO   OCC          E(Eh)            E(eV)
   0   2.0000     -19.243476      -523.6416
   1   2.0000     -10.311785      -280.5979
   2   2.0000      -1.198534       -32.6138
   3   2.0000      -0.572872       -15.5886
   4   2.0000      -0.481499       -13.1022
   5   2.0000      -0.481499       -13.1022
   6   2.0000      -0.380707       -10.3596
   7   0.0000      -0.045507        -1.2383
   8   0.0000      -0.045507        -1.2383
   9   0.0000       0.213237         5.8025
  10   0.0000       0.384076        10.4512
  11   0.0000       0.384076        10.4512

MULLIKEN ATOMIC CHARGES
-----------------------
   0 C :    0.188678
   1 O :   -0.188678
Sum of atomic charges:   -0.0000000

LOEWDIN ATOMIC CHARGES
----------------------
   0 C :    0.072962
   1 O :   -0.072962

  Mayer bond orders larger than 0.100000
B(  0-C ,  1-O ) :   2.2611

Dispersion correction           -0.000727699
FINAL SINGLE POINT ENERGY      -113.245439173750

DIPOLE MOMENT
-------------
                                X             Y             Z
Electronic contribution:     -0.04078      -0.00000      -0.00000
Nuclear contribution   :      0.00728       0.00000       0.00000
                        -----------------------------------------
Total Dipole Moment    :     -0.03351      -0.00000      -0.00000
                        -----------------------------------------
Magnitude (a.u.)       :      0.03351
Magnitude (Debye)      :      0.08517

Dispersion correction in the Hessian             ... done   (      0.2 sec)

VIBRATIONAL FREQUENCIES
-----------------------

Scaling factor for frequencies =  1.000000000  (already applied!)

   0:         0.00 cm**-1
   1:         0.00 cm**-1
   2:         0.00 cm**-1
   3:         0.00 cm**-1
   4:         0.00 cm**-1
   5:      2061.47 cm**-1

IR SPECTRUM
-----------

 Mode   freq       eps      Int      T**2         TX        TY        TZ
       cm**-1   L/(mol*cm) km/mol    a.u.
----------------------------------------------------------------------------
  5:   2061.47   0.013853   70.01  0.002097  (-0.045793 -0.000000  0.000000)

--------------------------
THERMOCHEMISTRY AT 298.15K
--------------------------

Temperature         ... 298.15 K
Pressure            ... 1.00 atm
Total Mass          ... 28.01 AMU
The molecule is recognized as being linear

Throughout the following assumptions are being made:
  (1) The electronic state is orbitally nondegenerate
  (2) There are no thermally accessible electronically excited states
  (3) Hindered rotations indicated by low frequency modes are not
      treated as such but are treated as vibrations and this may
      cause some error
  (4) All equations used are the standard statistical mechanics
      equations for an ideal gas
  (5) All vibrations are strictly harmonic

freq.    2061.47  E(vib)   ...       0.00

------------
INNER ENERGY
------------

The inner energy is: U= E(el) + E(ZPE) + E(vib) + E(rot) + E(trans)
    E(el)   - is the total energy from the electronic structure calculation
              = E(kin-el) + E(nuc-el) + E(el-el) + E(nuc-nuc)
    E(ZPE)  - the the zero temperature vibrational energy from the frequency calculation
    E(vib)  - the the finite temperature correction to E(ZPE) due to population
              of excited vibrational states
    E(rot)  - is the rotational thermal energy
    E(trans)- is the translational thermal energy

Summary of contributions to the inner energy U:
Electronic energy                ...   -113.24543917 Eh
Zero point energy                ...      0.00469638 Eh       2.95 kcal/mol
Thermal vibrational correction   ...      0.00000045 Eh       0.00 kcal/mol
Thermal rotational correction    ...      0.00094418 Eh       0.59 kcal/mol
Thermal translational correction ...      0.00141627 Eh       0.89 kcal/mol
-----------------------------------------------------------------------
Total thermal energy                   -113.23838190 Eh

Summary of corrections to the electronic energy:
(perhaps to be used in another calculation)
Total thermal correction                  0.00236090 Eh       1.48 kcal/mol
Non-thermal (ZPE) correction              0.00469638 Eh       2.95 kcal/mol
-----------------------------------------------------------------------
Total correction                          0.00705728 Eh       4.43 kcal/mol

--------
ENTHALPY
--------

The enthalpy is H = U + kB*T
                kB is Boltzmann's constant
Total free energy                 ...   -113.23838190 Eh
Thermal Enthalpy correction       ...      0.00094421 Eh       0.59 kcal/mol
-----------------------------------------------------------------------
Total Enthalpy                    ...   -113.23743769 Eh

Note: Rotational entropy computed according to Herzberg
Infrared and Raman Spectra, Chapter V,1, Van Nostrand Reinhold, 1945
Point Group:  Cinfv, Symmetry Number:   1
Rotational constants in cm-1:     0.000000     1.866128     1.866128

Vibrational entropy computed according to the QRRHO of S. Grimme
Chem.Eur.J. 2012 18 9955

-------
ENTROPY
-------

The entropy contributions are T*S = T*(S(el)+S(vib)+S(rot)+S(trans))
     S(el)   - electronic entropy
     S(vib)  - vibrational entropy
     S(rot)  - rotational entropy
     S(trans)- translational entropy
The entropies will be listed as multiplied by the temperature to get
units of energy

Electronic entropy                ...      0.00000000 Eh      0.00 kcal/mol
Vibrational entropy               ...      0.00000049 Eh      0.00 kcal/mol
Rotational entropy                ...      0.00539122 Eh      3.38 kcal/mol
Translational entropy             ...      0.01706888 Eh     10.71 kcal/mol
-----------------------------------------------------------------------
Final entropy term                ...      0.02246060 Eh     14.09 kcal/mol

-------------------
GIBBS FREE ENERGY
-------------------

The Gibbs free energy is G = H - T*S

Total enthalpy                    ...   -113.23743769 Eh
Total entropy correction          ...     -0.02246060 Eh    -14.09 kcal/mol
-----------------------------------------------------------------------
Final Gibbs free energy         ...   -113.25989828 Eh

For completeness - the Gibbs free energy minus the electronic energy
G-E(el)                           ...     -0.01445911 Eh     -9.07 kcal/mol

                             ****ORCA TERMINATED NORMALLY****
TOTAL RUN TIME: 0 days 0 hours 0 minutes 15 seconds 311 msec
