                         Program Version 5.0.3 -  RELEASE  -
|  1> !B3LYP D3BJ 6-311G
|  2> !RIJCOSX AutoAux printbasis
|  3> !Opt Freq
|  4> !DEFGRID3 TightSCF
|  5> *xyz -1 2
|  6> C 0.00000000000000 0.00000000000000 0.00000000000000
|  7> O 1.50000000000000 0.00000000000000 0.00000000000000
|  8> **                         ****END OF INPUT****
 Total Charge           Charge          ....   -1
 Multiplicity           Mult            ....    2
 Number of Electrons    NEL             ....   15
Dispersion correction           -0.000726330
FINAL SINGLE POINT ENERGY      -113.140580295914
Dispersion correction            ... done
Dispersion correction           -0.000726849
FINAL SINGLE POINT ENERGY      -113.173514673542
Dispersion correction            ... done
Dispersion correction           -0.000727582
FINAL SINGLE POINT ENERGY      -113.171919293338
Dispersion correction            ... done
FINAL SINGLE POINT ENERGY      -113.179390788004
Dispersion correction           -0.000727245
FINAL SINGLE POINT ENERGY      -113.179695329746
Dispersion correction            ... done
Dispersion correction           -0.000727265
FINAL SINGLE POINT ENERGY      -113.179713471341
Dispersion correction            ... done
                    ***********************HURRAY********************

CARTESIAN COORDINATES (ANGSTROEM)
---------------------------------
  C      0.120257    0.000000    0.000000
  O      1.379743    0.000000    0.000000

 Multiplicity           Mult            ....    2
 Number of Electrons    NEL             ....   15
 Basis Dimension        Dim             ....   26

ORBITAL ENERGIES
----------------
                 SPIN UP ORBITALS
  NO   OCC          E(Eh)            E(eV)
   0   1.0000     -18.836779      -512.5748
   1   1.0000      -9.909446      -269.6497
   2   1.0000      -0.750138       -20.4123
   3   1.0000      -0.222739        -6.0610
   4   1.0000      -0.104278        -2.8376
   5   1.0000      -0.086994        -2.3672
   6   1.0000      -0.035296        -0.9604
   7   1.0000       0.176254         4.7961
   8   0.0000       0.264799         7.2056
   9   0.0000       0.484297        13.1784
  10   0.0000       0.677735        18.4421
  11   0.0000       0.691580        18.8188
  12   0.0000       0.735933        20.0258

                 SPIN DOWN ORBITALS
  NO   OCC          E(Eh)            E(eV)
   0   1.0000     -18.828841      -512.3588
   1   1.0000      -9.898642      -269.3557
   2   1.0000      -0.732897       -19.9431
   3   1.0000      -0.198519        -5.4020
   4   1.0000      -0.079663        -2.1677
   5   1.0000      -0.052199        -1.4204
   6   1.0000      -0.011233        -0.3057
   7   0.0000       0.278336         7.5739
   8   0.0000       0.308862         8.4046
   9   0.0000       0.493220        13.4212
  10   0.0000       0.701641        19.0926
  11   0.0000       0.728570        19.8254

MULLIKEN ATOMIC CHARGES AND SPIN POPULATIONS
--------------------------------------------
   0 C :   -0.451704    0.812354
   1 O :   -0.548296    0.187646
Sum of atomic charges         :   -1.0000000

LOEWDIN ATOMIC CHARGES AND SPIN POPULATIONS
-------------------------------------------
   0 C :   -0.561822    0.758709
   1 O :   -0.438178    0.241291

  Mayer bond orders larger than 0.100000
B(  0-C ,  1-O ) :   1.7612

Dispersion correction           -0.000727264
FINAL SINGLE POINT ENERGY      -113.179713529905

DIPOLE MOMENT
-------------
                                X             Y             Z
Electronic contribution:      0.60469       0.00000      -0.00000
Nuclear contribution   :      0.00799       0.00000       0.00000
                        -----------------------------------------
Total Dipole Moment    :      0.61267       0.00000      -0.00000
                        -----------------------------------------
Magnitude (a.u.)       :      0.61267
Magnitude (Debye)      :      1.55729

Dispersion correction in the Hessian             ... done   (      0.2 sec)

VIBRATIONAL FREQUENCIES
-----------------------

Scaling factor for frequencies =  1.000000000  (already applied!)

   0:         0.00 cm**-1
   1:         0.00 cm**-1
   2:         0.00 cm**-1
   3:         0.00 cm**-1
   4:         0.00 cm**-1
   5:      1543.92 cm**-1

IR SPECTRUM
-----------

 Mode   freq       eps      Int      T**2         TX        TY        TZ
       cm**-1   L/(mol*cm) km/mol    a.u.
----------------------------------------------------------------------------
  5:   1543.92   0.013415   67.80  0.002712  (-0.052073 -0.000000  0.000000)

--------------------------
THERMOCHEMISTRY AT 298.15K
--------------------------

Temperature         ... 298.15 K
Pressure            ... 1.00 atm
Total Mass          ... 28.01 AMU
The molecule is recognized as being linear

Throughout the following assumptions are being made:
  (1) The electronic state is orbitally nondegenerate
      but the spin degeneracy is treated
  (2) There are no thermally accessible electronically excited states
  (3) Hindered rotations indicated by low frequency modes are not
      treated as such but are treated as vibrations and this may
      cause some error
  (4) All equations used are the standard statistical mechanics
      equations for an ideal gas
  (5) All vibrations are strictly harmonic

freq.    1543.92  E(vib)   ...       0.00

------------
INNER ENERGY
------------

The inner energy is: U= E(el) + E(ZPE) + E(vib) + E(rot) + E(trans)
    E(el)   - is the total energy from the electronic structure calculation
              = E(kin-el) + E(nuc-el) + E(el-el) + E(nuc-nuc)
    E(ZPE)  - the the zero temperature vibrational energy from the frequency calculation
    E(vib)  - the the finite temperature correction to E(ZPE) due to population
              of excited vibrational states
    E(rot)  - is the rotational thermal energy
    E(trans)- is the translational thermal energy

Summary of contributions to the inner energy U:
Electronic energy                ...   -113.17971353 Eh
Zero point energy                ...      0.00351732 Eh       2.21 kcal/mol
Thermal vibrational correction   ...      0.00000409 Eh       0.00 kcal/mol
Thermal rotational correction    ...      0.00094418 Eh       0.59 kcal/mol
Thermal translational correction ...      0.00141627 Eh       0.89 kcal/mol
-----------------------------------------------------------------------
Total thermal energy                   -113.17383167 Eh

Summary of corrections to the electronic energy:
(perhaps to be used in another calculation)
Total thermal correction                  0.00236454 Eh       1.48 kcal/mol
Non-thermal (ZPE) correction              0.00351732 Eh       2.21 kcal/mol
-----------------------------------------------------------------------
Total correction                          0.00588186 Eh       3.69 kcal/mol

--------
ENTHALPY
--------

The enthalpy is H = U + kB*T
                kB is Boltzmann's constant
Total free energy                 ...   -113.17383167 Eh
Thermal Enthalpy correction       ...      0.00094421 Eh       0.59 kcal/mol
-----------------------------------------------------------------------
Total Enthalpy                    ...   -113.17288746 Eh

Note: Rotational entropy computed according to Herzberg
Infrared and Raman Spectra, Chapter V,1, Van Nostrand Reinhold, 1945
Point Group:  Cinfv, Symmetry Number:   1
Rotational constants in cm-1:     0.000000     1.549000     1.549000

Vibrational entropy computed according to the QRRHO of S. Grimme
Chem.Eur.J. 2012 18 9955

-------
ENTROPY
-------

The entropy contributions are T*S = T*(S(el)+S(vib)+S(rot)+S(trans))
     S(el)   - electronic entropy
     S(vib)  - vibrational entropy
     S(rot)  - rotational entropy
     S(trans)- translational entropy
The entropies will be listed as multiplied by the temperature to get
units of energy

Electronic entropy                ...      0.00065446 Eh      0.41 kcal/mol
Vibrational entropy               ...      0.00000464 Eh      0.00 kcal/mol
Rotational entropy                ...      0.00556708 Eh      3.49 kcal/mol
Translational entropy             ...      0.01706888 Eh     10.71 kcal/mol
-----------------------------------------------------------------------
Final entropy term                ...      0.02329506 Eh     14.62 kcal/mol

-------------------
GIBBS FREE ENERGY
-------------------

The Gibbs free energy is G = H - T*S

Total enthalpy                    ...   -113.17288746 Eh
Total entropy correction          ...     -0.02329506 Eh    -14.62 kcal/mol
-----------------------------------------------------------------------
Final Gibbs free energy         ...   -113.19618252 Eh

For completeness - the Gibbs free energy minus the electronic energy
G-E(el)                           ...     -0.01646899 Eh    -10.33 kcal/mol

                             ****ORCA TERMINATED NORMALLY****
TOTAL RUN TIME: 0 days 0 hours 0 minutes 18 seconds 266 msec
