                         Program Version 5.0.3 -  RELEASE  -
|  1> !B3LYP D3BJ 6-311G
|  2> !RIJCOSX AutoAux printbasis
|  3> !Opt Freq
|  4> !DEFGRID3 TightSCF
|  5> *xyz 1 2
|  6> C 0.00000000000000 0.00000000000000 0.00000000000000
|  7> O 1.50000000000000 0.00000000000000 0.00000000000000
|  8> **                         ****END OF INPUT****
 Total Charge           Charge          ....    1
 Multiplicity           Mult            ....    2
 Number of Electrons    NEL             ....   13
Dispersion correction           -0.000726330
FINAL SINGLE POINT ENERGY      -112.606548844542
Dispersion correction            ... done
Dispersion correction           -0.000726849
FINAL SINGLE POINT ENERGY      -112.671263556197
Dispersion correction            ... done
Dispersion correction           -0.000727582
FINAL SINGLE POINT ENERGY      -112.721775888536
Dispersion correction            ... done
FINAL SINGLE POINT ENERGY      -112.716126918677
FINAL SINGLE POINT ENERGY      -112.726159098832
Dispersion correction           -0.000727738
FINAL SINGLE POINT ENERGY      -112.726353284797
Dispersion correction            ... done
Dispersion correction           -0.000727744
FINAL SINGLE POINT ENERGY      -112.726363224369
Dispersion correction            ... done
                    ***********************HURRAY********************

CARTESIAN COORDINATES (ANGSTROEM)
---------------------------------
  C      0.183684    0.000000    0.000000
  O      1.316316    0.000000    0.000000

 Multiplicity           Mult            ....    2
 Number of Electrons    NEL             ....   13
 Basis Dimension        Dim             ....   26

ORBITAL ENERGIES
----------------
                 SPIN UP ORBITALS
  NO   OCC          E(Eh)            E(eV)
   0   1.0000     -19.667308      -535.1747
   1   1.0000     -10.813930      -294.2620
   2   1.0000      -1.609033       -43.7840
   3   1.0000      -0.965456       -26.2714
   4   1.0000      -0.870923       -23.6990
   5   1.0000      -0.870923       -23.6990
   6   1.0000      -0.860703       -23.4209
   7   0.0000      -0.447929       -12.1888
   8   0.0000      -0.447929       -12.1888
   9   0.0000      -0.095500        -2.5987
  10   0.0000       0.058702         1.5974
  11   0.0000       0.058702         1.5974

                 SPIN DOWN ORBITALS
  NO   OCC          E(Eh)            E(eV)
   0   1.0000     -19.668844      -535.2164
   1   1.0000     -10.788336      -293.5656
   2   1.0000      -1.602451       -43.6049
   3   1.0000      -0.929789       -25.3009
   4   1.0000      -0.865431       -23.5496
   5   1.0000      -0.865431       -23.5496
   6   0.0000      -0.649971       -17.6866
   7   0.0000      -0.409518       -11.1436
   8   0.0000      -0.409518       -11.1436
   9   0.0000      -0.075089        -2.0433
  10   0.0000       0.074908         2.0384

MULLIKEN ATOMIC CHARGES AND SPIN POPULATIONS
--------------------------------------------
   0 C :    0.892435    1.113133
   1 O :    0.107565   -0.113133
Sum of atomic charges         :    1.0000000

LOEWDIN ATOMIC CHARGES AND SPIN POPULATIONS
-------------------------------------------
   0 C :    0.733883    1.068945
   1 O :    0.266117   -0.068945

  Mayer bond orders larger than 0.100000
B(  0-C ,  1-O ) :   2.5996

Dispersion correction           -0.000727744
FINAL SINGLE POINT ENERGY      -112.726363236753

DIPOLE MOMENT
-------------
                                X             Y             Z
Electronic contribution:     -1.12238      -0.00000       0.00000
Nuclear contribution   :      0.00718       0.00000       0.00000
                        -----------------------------------------
Total Dipole Moment    :     -1.11519      -0.00000       0.00000
                        -----------------------------------------
Magnitude (a.u.)       :      1.11519
Magnitude (Debye)      :      2.83460

Dispersion correction in the Hessian             ... done   (      0.2 sec)

VIBRATIONAL FREQUENCIES
-----------------------

Scaling factor for frequencies =  1.000000000  (already applied!)

   0:         0.00 cm**-1
   1:         0.00 cm**-1
   2:         0.00 cm**-1
   3:         0.00 cm**-1
   4:         0.00 cm**-1
   5:      2120.81 cm**-1

IR SPECTRUM
-----------

 Mode   freq       eps      Int      T**2         TX        TY        TZ
       cm**-1   L/(mol*cm) km/mol    a.u.
----------------------------------------------------------------------------
  5:   2120.81   0.002530   12.78  0.000372  (-0.019293  0.000000  0.000000)

--------------------------
THERMOCHEMISTRY AT 298.15K
--------------------------

Temperature         ... 298.15 K
Pressure            ... 1.00 atm
Total Mass          ... 28.01 AMU
The molecule is recognized as being linear

Throughout the following assumptions are being made:
  (1) The electronic state is orbitally nondegenerate
      but the spin degeneracy is treated
  (2) There are no thermally accessible electronically excited states
  (3) Hindered rotations indicated by low frequency modes are not
      treated as such but are treated as vibrations and this may
      cause some error
  (4) All equations used are the standard statistical mechanics
      equations for an ideal gas
  (5) All vibrations are strictly harmonic

freq.    2120.81  E(vib)   ...       0.00

------------
INNER ENERGY
------------

The inner energy is: U= E(el) + E(ZPE) + E(vib) + E(rot) + E(trans)
    E(el)   - is the total energy from the electronic structure calculation
              = E(kin-el) + E(nuc-el) + E(el-el) + E(nuc-nuc)
    E(ZPE)  - the the zero temperature vibrational energy from the frequency calculation
    E(vib)  - the the finite temperature correction to E(ZPE) due to population
              of excited vibrational states
    E(rot)  - is the rotational thermal energy
    E(trans)- is the translational thermal energy

Summary of contributions to the inner energy U:
Electronic energy                ...   -112.72636324 Eh
Zero point energy                ...      0.00483157 Eh       3.03 kcal/mol
Thermal vibrational correction   ...      0.00000035 Eh       0.00 kcal/mol
Thermal rotational correction    ...      0.00094418 Eh       0.59 kcal/mol
Thermal translational correction ...      0.00141627 Eh       0.89 kcal/mol
-----------------------------------------------------------------------
Total thermal energy                   -112.71917087 Eh

Summary of corrections to the electronic energy:
(perhaps to be used in another calculation)
Total thermal correction                  0.00236080 Eh       1.48 kcal/mol
Non-thermal (ZPE) correction              0.00483157 Eh       3.03 kcal/mol
-----------------------------------------------------------------------
Total correction                          0.00719237 Eh       4.51 kcal/mol

--------
ENTHALPY
--------

The enthalpy is H = U + kB*T
                kB is Boltzmann's constant
Total free energy                 ...   -112.71917087 Eh
Thermal Enthalpy correction       ...      0.00094421 Eh       0.59 kcal/mol
-----------------------------------------------------------------------
Total Enthalpy                    ...   -112.71822666 Eh

Note: Rotational entropy computed according to Herzberg
Infrared and Raman Spectra, Chapter V,1, Van Nostrand Reinhold, 1945
Point Group:  Cinfv, Symmetry Number:   1
Rotational constants in cm-1:     0.000000     1.915405     1.915405

Vibrational entropy computed according to the QRRHO of S. Grimme
Chem.Eur.J. 2012 18 9955

-------
ENTROPY
-------

The entropy contributions are T*S = T*(S(el)+S(vib)+S(rot)+S(trans))
     S(el)   - electronic entropy
     S(vib)  - vibrational entropy
     S(rot)  - rotational entropy
     S(trans)- translational entropy
The entropies will be listed as multiplied by the temperature to get
units of energy

Electronic entropy                ...      0.00065446 Eh      0.41 kcal/mol
Vibrational entropy               ...      0.00000038 Eh      0.00 kcal/mol
Rotational entropy                ...      0.00536661 Eh      3.37 kcal/mol
Translational entropy             ...      0.01706888 Eh     10.71 kcal/mol
-----------------------------------------------------------------------
Final entropy term                ...      0.02309033 Eh     14.49 kcal/mol

-------------------
GIBBS FREE ENERGY
-------------------

The Gibbs free energy is G = H - T*S

Total enthalpy                    ...   -112.71822666 Eh
Total entropy correction          ...     -0.02309033 Eh    -14.49 kcal/mol
-----------------------------------------------------------------------
Final Gibbs free energy         ...   -112.74131699 Eh

For completeness - the Gibbs free energy minus the electronic energy
G-E(el)                           ...     -0.01495375 Eh     -9.38 kcal/mol

                             ****ORCA TERMINATED NORMALLY****
TOTAL RUN TIME: 0 days 0 hours 0 minutes 21 seconds 248 msec
