                         Program Version 5.0.3 -  RELEASE  -
|  1> !B3LYP D3BJ 6-311G
|  2> !RIJCOSX AutoAux printbasis
|  3> !Opt Freq
|  4> !DEFGRID3 TightSCF
|  5> *xyz 0 1
|  6> C       -1.815527635      0.000000000     -1.701852812
|  7> H       -1.815527635      1.019690000     -2.101108812
|  8> H       -0.932449635     -0.509845000     -2.101108811
|  9> C       -1.815527635      0.000000000     -0.171864812
| 10> H       -2.698605635      0.509845000      0.227391188
| 11> H       -1.815527635     -1.019690000      0.227391188
| 12> O       -2.976763524     -0.670439431     -2.226869171
| 13> H       -3.617938706     -0.008421754     -2.516756404
| 14> O       -0.654291745      0.670439431      0.353151548
| 15> H       -0.788200812      1.625327153      0.292608766
| 16> **                         ****END OF INPUT****
 Total Charge           Charge          ....    0
 Multiplicity           Mult            ....    1
 Number of Electrons    NEL             ....   34
Dispersion correction           -0.008699202
FINAL SINGLE POINT ENERGY      -230.119108360273
Dispersion correction            ... done
Dispersion correction           -0.008703555
FINAL SINGLE POINT ENERGY      -230.121585111530
Dispersion correction            ... done
Dispersion correction           -0.008720339
FINAL SINGLE POINT ENERGY      -230.121953899995
Dispersion correction            ... done
FINAL SINGLE POINT ENERGY      -230.122110720634
FINAL SINGLE POINT ENERGY      -230.122377063702
FINAL SINGLE POINT ENERGY      -230.122593322394
FINAL SINGLE POINT ENERGY      -230.122724339236
FINAL SINGLE POINT ENERGY      -230.122765562026
Dispersion correction           -0.008788655
FINAL SINGLE POINT ENERGY      -230.122771225387
Dispersion correction            ... done
Dispersion correction           -0.008789225
FINAL SINGLE POINT ENERGY      -230.122773407693
Dispersion correction            ... done
                    ***********************HURRAY********************

CARTESIAN COORDINATES (ANGSTROEM)
---------------------------------
  C     -1.777799    0.053515   -1.730065
  H     -1.723476    1.089159   -2.090440
  H     -0.880764   -0.468813   -2.050516
  C     -1.872214    0.027434   -0.208774
  H     -2.790843    0.527908    0.124372
  H     -1.896453   -1.001401    0.139187
  O     -2.891421   -0.656807   -2.344617
  H     -3.721841   -0.167308   -2.207236
  O     -0.696461    0.627012    0.407819
  H     -0.679088    1.586206    0.241252

 Multiplicity           Mult            ....    1
 Number of Electrons    NEL             ....   34
 Basis Dimension        Dim             ....   70

ORBITAL ENERGIES
----------------

  NO   OCC          E(Eh)            E(eV)
   0   2.0000     -19.121605      -520.3253
   1   2.0000     -19.121570      -520.3244
   2   2.0000     -10.224870      -278.2329
   3   2.0000     -10.224660      -278.2271
   4   2.0000      -1.030827       -28.0502
   5   2.0000      -1.019938       -27.7539
   6   2.0000      -0.749502       -20.3950
   7   2.0000      -0.639188       -17.3932
   8   2.0000      -0.528169       -14.3722
   9   2.0000      -0.507791       -13.8177
  10   2.0000      -0.463861       -12.6223
  11   2.0000      -0.418672       -11.3926
  12   2.0000      -0.412682       -11.2296
  13   2.0000      -0.341680        -9.2976
  14   2.0000      -0.329581        -8.9684
  15   2.0000      -0.296644        -8.0721
  16   2.0000      -0.266742        -7.2584
  17   0.0000       0.021834         0.5941
  18   0.0000       0.022821         0.6210
  19   0.0000       0.080185         2.1819
  20   0.0000       0.085487         2.3262
  21   0.0000       0.107481         2.9247

MULLIKEN ATOMIC CHARGES
-----------------------
   0 C :   -0.115933
   1 H :    0.142767
   2 H :    0.200520
   3 C :   -0.115309
   4 H :    0.142792
   5 H :    0.200515
   6 O :   -0.581125
   7 H :    0.353492
   8 O :   -0.581136
   9 H :    0.353415
Sum of atomic charges:    0.0000000

LOEWDIN ATOMIC CHARGES
----------------------
   0 C :   -0.003549
   1 H :    0.048119
   2 H :    0.080487
   3 C :   -0.003503
   4 H :    0.048111
   5 H :    0.080504
   6 O :   -0.371539
   7 H :    0.246467
   8 O :   -0.371519
   9 H :    0.246421

  Mayer bond orders larger than 0.100000
B(  0-C ,  1-H ) :   0.9242 B(  0-C ,  2-H ) :   0.9210 B(  0-C ,  3-C ) :   0.8565
B(  0-C ,  6-O ) :   0.8609 B(  3-C ,  4-H ) :   0.9241 B(  3-C ,  5-H ) :   0.9210
B(  3-C ,  8-O ) :   0.8607 B(  6-O ,  7-H ) :   0.8195 B(  8-O ,  9-H ) :   0.8196

Dispersion correction           -0.008788976
FINAL SINGLE POINT ENERGY      -230.122773660470

DIPOLE MOMENT
-------------
                                X             Y             Z
Electronic contribution:      0.13016      -0.23238       0.00435
Nuclear contribution   :     -0.71801       1.27944      -0.02568
                        -----------------------------------------
Total Dipole Moment    :     -0.58785       1.04706      -0.02133
                        -----------------------------------------
Magnitude (a.u.)       :      1.20098
Magnitude (Debye)      :      3.05266

Dispersion correction in the Hessian             ... done   (      0.9 sec)

VIBRATIONAL FREQUENCIES
-----------------------

Scaling factor for frequencies =  1.000000000  (already applied!)

   0:         0.00 cm**-1
   1:         0.00 cm**-1
   2:         0.00 cm**-1
   3:         0.00 cm**-1
   4:         0.00 cm**-1
   5:         0.00 cm**-1
   6:       147.31 cm**-1
   7:       267.39 cm**-1
   8:       282.40 cm**-1
   9:       332.69 cm**-1
  10:       462.43 cm**-1
  11:       831.37 cm**-1
  12:       987.84 cm**-1
  13:       996.29 cm**-1
  14:      1067.44 cm**-1
  15:      1069.85 cm**-1
  16:      1148.78 cm**-1
  17:      1321.11 cm**-1
  18:      1344.17 cm**-1
  19:      1385.06 cm**-1
  20:      1397.93 cm**-1
  21:      1444.56 cm**-1
  22:      1531.82 cm**-1
  23:      1552.30 cm**-1
  24:      2973.07 cm**-1
  25:      2980.98 cm**-1
  26:      3117.80 cm**-1
  27:      3133.39 cm**-1
  28:      3659.04 cm**-1
  29:      3660.03 cm**-1

IR SPECTRUM
-----------

 Mode   freq       eps      Int      T**2         TX        TY        TZ
       cm**-1   L/(mol*cm) km/mol    a.u.
----------------------------------------------------------------------------
  6:    147.31   0.000846    4.28  0.001793  (-0.020838  0.036849 -0.000690)
  7:    267.39   0.002559   12.93  0.002987  ( 0.017300  0.010307  0.050807)
  8:    282.40   0.012546   63.40  0.013864  ( 0.057117 -0.102912  0.003304)
  9:    332.69   0.058196  294.10  0.054589  (-0.062352 -0.029871  0.223179)
 10:    462.43   0.000017    0.09  0.000012  ( 0.001754 -0.002917 -0.000029)
 11:    831.37   0.000056    0.28  0.000021  (-0.002239  0.003988 -0.000006)
 12:    987.84   0.000054    0.28  0.000017  (-0.001062  0.003964  0.000598)
 13:    996.29   0.044415  224.46  0.013912  (-0.087451 -0.050202 -0.061189)
 14:   1067.44   0.003778   19.09  0.001104  (-0.024559 -0.013979 -0.017491)
 15:   1069.85   0.000115    0.58  0.000033  ( 0.001967 -0.005423 -0.000442)
 16:   1148.78   0.000030    0.15  0.000008  (-0.001421  0.002490 -0.000091)
 17:   1321.11   0.005403   27.30  0.001276  (-0.027447 -0.015726 -0.016598)
 18:   1344.17   0.000105    0.53  0.000024  (-0.004297 -0.002413  0.000151)
 19:   1385.06   0.000008    0.04  0.000002  ( 0.000422 -0.001288 -0.000058)
 20:   1397.93   0.010795   54.56  0.002410  ( 0.038347  0.021947  0.021394)
 21:   1444.56   0.000036    0.18  0.000008  (-0.001409  0.002401 -0.000068)
 22:   1531.82   0.000064    0.32  0.000013  ( 0.001773 -0.003144  0.000071)
 23:   1552.30   0.000375    1.89  0.000075  (-0.005291 -0.002888  0.006244)
 24:   2973.07   0.018549   93.74  0.001947  (-0.034384 -0.019318  0.019788)
 25:   2980.98   0.009259   46.79  0.000969  (-0.015595  0.026944 -0.000284)
 26:   3117.80   0.002391   12.08  0.000239  ( 0.011753  0.006343 -0.007805)
 27:   3133.39   0.007186   36.32  0.000716  ( 0.013086 -0.023330  0.000434)
 28:   3659.04   0.003353   16.95  0.000286  ( 0.012271  0.007123  0.009202)
 29:   3660.03   0.000039    0.20  0.000003  (-0.001560 -0.000084 -0.000925)

--------------------------
THERMOCHEMISTRY AT 298.15K
--------------------------

Temperature         ... 298.15 K
Pressure            ... 1.00 atm
Total Mass          ... 62.07 AMU

Throughout the following assumptions are being made:
  (1) The electronic state is orbitally nondegenerate
  (2) There are no thermally accessible electronically excited states
  (3) Hindered rotations indicated by low frequency modes are not
      treated as such but are treated as vibrations and this may
      cause some error
  (4) All equations used are the standard statistical mechanics
      equations for an ideal gas
  (5) All vibrations are strictly harmonic

freq.     147.31  E(vib)   ...       0.41
freq.     267.39  E(vib)   ...       0.29
freq.     282.40  E(vib)   ...       0.28
freq.     332.69  E(vib)   ...       0.24
freq.     462.43  E(vib)   ...       0.16
freq.     831.37  E(vib)   ...       0.04
freq.     987.84  E(vib)   ...       0.02
freq.     996.29  E(vib)   ...       0.02
freq.    1067.44  E(vib)   ...       0.02
freq.    1069.85  E(vib)   ...       0.02
freq.    1148.78  E(vib)   ...       0.01
freq.    1321.11  E(vib)   ...       0.01
freq.    1344.17  E(vib)   ...       0.01
freq.    1385.06  E(vib)   ...       0.00
freq.    1397.93  E(vib)   ...       0.00
freq.    1444.56  E(vib)   ...       0.00
freq.    1531.82  E(vib)   ...       0.00
freq.    1552.30  E(vib)   ...       0.00
freq.    2973.07  E(vib)   ...       0.00
freq.    2980.98  E(vib)   ...       0.00
freq.    3117.80  E(vib)   ...       0.00
freq.    3133.39  E(vib)   ...       0.00
freq.    3659.04  E(vib)   ...       0.00
freq.    3660.03  E(vib)   ...       0.00

------------
INNER ENERGY
------------

The inner energy is: U= E(el) + E(ZPE) + E(vib) + E(rot) + E(trans)
    E(el)   - is the total energy from the electronic structure calculation
              = E(kin-el) + E(nuc-el) + E(el-el) + E(nuc-nuc)
    E(ZPE)  - the the zero temperature vibrational energy from the frequency calculation
    E(vib)  - the the finite temperature correction to E(ZPE) due to population
              of excited vibrational states
    E(rot)  - is the rotational thermal energy
    E(trans)- is the translational thermal energy

Summary of contributions to the inner energy U:
Electronic energy                ...   -230.12277366 Eh
Zero point energy                ...      0.08450874 Eh      53.03 kcal/mol
Thermal vibrational correction   ...      0.00245985 Eh       1.54 kcal/mol
Thermal rotational correction    ...      0.00141627 Eh       0.89 kcal/mol
Thermal translational correction ...      0.00141627 Eh       0.89 kcal/mol
-----------------------------------------------------------------------
Total thermal energy                   -230.03297253 Eh

Summary of corrections to the electronic energy:
(perhaps to be used in another calculation)
Total thermal correction                  0.00529239 Eh       3.32 kcal/mol
Non-thermal (ZPE) correction              0.08450874 Eh      53.03 kcal/mol
-----------------------------------------------------------------------
Total correction                          0.08980113 Eh      56.35 kcal/mol

--------
ENTHALPY
--------

The enthalpy is H = U + kB*T
                kB is Boltzmann's constant
Total free energy                 ...   -230.03297253 Eh
Thermal Enthalpy correction       ...      0.00094421 Eh       0.59 kcal/mol
-----------------------------------------------------------------------
Total Enthalpy                    ...   -230.03202832 Eh

Note: Only C1 symmetry has been detected, increase convergence thresholds
      if your molecule has a higher symmetry. Symmetry factor of 1.0 is
      used for the rotational entropy correction.

Note: Rotational entropy computed according to Herzberg
Infrared and Raman Spectra, Chapter V,1, Van Nostrand Reinhold, 1945
Point Group:  C1, Symmetry Number:   1
Rotational constants in cm-1:     0.969981     0.126391     0.118877

Vibrational entropy computed according to the QRRHO of S. Grimme
Chem.Eur.J. 2012 18 9955

-------
ENTROPY
-------

The entropy contributions are T*S = T*(S(el)+S(vib)+S(rot)+S(trans))
     S(el)   - electronic entropy
     S(vib)  - vibrational entropy
     S(rot)  - rotational entropy
     S(trans)- translational entropy
The entropies will be listed as multiplied by the temperature to get
units of energy

Electronic entropy                ...      0.00000000 Eh      0.00 kcal/mol
Vibrational entropy               ...      0.00404208 Eh      2.54 kcal/mol
Rotational entropy                ...      0.01150705 Eh      7.22 kcal/mol
Translational entropy             ...      0.01819577 Eh     11.42 kcal/mol
-----------------------------------------------------------------------
Final entropy term                ...      0.03374490 Eh     21.18 kcal/mol

In case the symmetry of your molecule has not been determined correctly
or in case you have a reason to use a different symmetry number we print
out the resulting rotational entropy values for sn=1,12 :
 --------------------------------------------------------
|  sn= 1 | S(rot)=       0.01150705 Eh      7.22 kcal/mol|
|  sn= 2 | S(rot)=       0.01085260 Eh      6.81 kcal/mol|
|  sn= 3 | S(rot)=       0.01046977 Eh      6.57 kcal/mol|
|  sn= 4 | S(rot)=       0.01019814 Eh      6.40 kcal/mol|
|  sn= 5 | S(rot)=       0.00998745 Eh      6.27 kcal/mol|
|  sn= 6 | S(rot)=       0.00981531 Eh      6.16 kcal/mol|
|  sn= 7 | S(rot)=       0.00966976 Eh      6.07 kcal/mol|
|  sn= 8 | S(rot)=       0.00954369 Eh      5.99 kcal/mol|
|  sn= 9 | S(rot)=       0.00943248 Eh      5.92 kcal/mol|
|  sn=10 | S(rot)=       0.00933300 Eh      5.86 kcal/mol|
|  sn=11 | S(rot)=       0.00924301 Eh      5.80 kcal/mol|
|  sn=12 | S(rot)=       0.00916085 Eh      5.75 kcal/mol|
 --------------------------------------------------------

-------------------
GIBBS FREE ENERGY
-------------------

The Gibbs free energy is G = H - T*S

Total enthalpy                    ...   -230.03202832 Eh
Total entropy correction          ...     -0.03374490 Eh    -21.18 kcal/mol
-----------------------------------------------------------------------
Final Gibbs free energy         ...   -230.06577322 Eh

For completeness - the Gibbs free energy minus the electronic energy
G-E(el)                           ...      0.05700044 Eh     35.77 kcal/mol

                             ****ORCA TERMINATED NORMALLY****
TOTAL RUN TIME: 0 days 0 hours 3 minutes 4 seconds 324 msec
