                         Program Version 5.0.3 -  RELEASE  -
|  1> !B3LYP D3BJ 6-311G
|  2> !RIJCOSX AutoAux printbasis
|  3> !Opt Freq
|  4> !DEFGRID3 TightSCF
|  5> *xyz -1 2
|  6> C       -1.815527635      0.000000000     -1.701852812
|  7> H       -1.815527635      1.019690000     -2.101108812
|  8> H       -0.932449635     -0.509845000     -2.101108811
|  9> C       -1.815527635      0.000000000     -0.171864812
| 10> H       -2.698605635      0.509845000      0.227391188
| 11> H       -1.815527635     -1.019690000      0.227391188
| 12> O       -2.976763524     -0.670439431     -2.226869171
| 13> H       -3.617938706     -0.008421754     -2.516756404
| 14> O       -0.654291745      0.670439431      0.353151548
| 15> H       -0.788200812      1.625327153      0.292608766
| 16> **                         ****END OF INPUT****
 Total Charge           Charge          ....   -1
 Multiplicity           Mult            ....    2
 Number of Electrons    NEL             ....   35
Dispersion correction           -0.008699202
FINAL SINGLE POINT ENERGY      -230.027254565026
Dispersion correction            ... done
Dispersion correction           -0.008605091
FINAL SINGLE POINT ENERGY      -230.035811420429
Dispersion correction            ... done
Dispersion correction           -0.008590490
FINAL SINGLE POINT ENERGY      -230.036968285464
Dispersion correction            ... done
FINAL SINGLE POINT ENERGY      -230.037301655323
FINAL SINGLE POINT ENERGY      -230.037716339611
FINAL SINGLE POINT ENERGY      -230.038179379489
FINAL SINGLE POINT ENERGY      -230.038744620336
FINAL SINGLE POINT ENERGY      -230.039192671739
FINAL SINGLE POINT ENERGY      -230.039540319913
FINAL SINGLE POINT ENERGY      -230.039985995363
FINAL SINGLE POINT ENERGY      -230.041804817305
FINAL SINGLE POINT ENERGY      -230.041949662834
FINAL SINGLE POINT ENERGY      -230.042144362841
FINAL SINGLE POINT ENERGY      -230.042546110476
FINAL SINGLE POINT ENERGY      -230.042616371425
FINAL SINGLE POINT ENERGY      -230.042726597751
FINAL SINGLE POINT ENERGY      -230.042759078087
Dispersion correction           -0.008849900
FINAL SINGLE POINT ENERGY      -230.042772603205
Dispersion correction            ... done
Dispersion correction           -0.008848153
FINAL SINGLE POINT ENERGY      -230.042776237935
Dispersion correction            ... done
                    ***********************HURRAY********************

CARTESIAN COORDINATES (ANGSTROEM)
---------------------------------
  C     -1.808563    0.200351   -1.728369
  H     -1.909739    1.248320   -2.042278
  H     -0.796575   -0.137046   -1.991402
  C     -1.977333    0.122695   -0.215497
  H     -2.989707    0.459580    0.046434
  H     -1.875414   -0.924923    0.099113
  O     -2.772364   -0.656123   -2.437090
  H     -3.716062   -0.503747   -2.043007
  O     -1.014027    0.979849    0.493386
  H     -0.070578    0.827950    0.099692

 Multiplicity           Mult            ....    2
 Number of Electrons    NEL             ....   35
 Basis Dimension        Dim             ....   70

ORBITAL ENERGIES
----------------
                 SPIN UP ORBITALS
  NO   OCC          E(Eh)            E(eV)
   0   1.0000     -18.907339      -514.4948
   1   1.0000     -18.907259      -514.4927
   2   1.0000     -10.029291      -272.9109
   3   1.0000     -10.029086      -272.9053
   4   1.0000      -0.805914       -21.9300
   5   1.0000      -0.792696       -21.5704
   6   1.0000      -0.544758       -14.8236
   7   1.0000      -0.437370       -11.9014
   8   1.0000      -0.311731        -8.4826
   9   1.0000      -0.295308        -8.0357
  10   1.0000      -0.265379        -7.2213
  11   1.0000      -0.219912        -5.9841
  12   1.0000      -0.199199        -5.4205
  13   1.0000      -0.166403        -4.5280
  14   1.0000      -0.122657        -3.3377
  15   1.0000      -0.081020        -2.2047
  16   1.0000      -0.067016        -1.8236
  17   1.0000       0.142554         3.8791
  18   0.0000       0.190009         5.1704
  19   0.0000       0.244550         6.6546
  20   0.0000       0.251871         6.8538
  21   0.0000       0.252843         6.8802
  22   0.0000       0.299354         8.1458

                 SPIN DOWN ORBITALS
  NO   OCC          E(Eh)            E(eV)
   0   1.0000     -18.903695      -514.3957
   1   1.0000     -18.903605      -514.3933
   2   1.0000     -10.028597      -272.8920
   3   1.0000     -10.028391      -272.8864
   4   1.0000      -0.797320       -21.6962
   5   1.0000      -0.783277       -21.3141
   6   1.0000      -0.541334       -14.7305
   7   1.0000      -0.433231       -11.7888
   8   1.0000      -0.308739        -8.4012
   9   1.0000      -0.288821        -7.8592
  10   1.0000      -0.263079        -7.1587
  11   1.0000      -0.217914        -5.9298
  12   1.0000      -0.196607        -5.3500
  13   1.0000      -0.160526        -4.3681
  14   1.0000      -0.116768        -3.1774
  15   1.0000      -0.077283        -2.1030
  16   1.0000      -0.063534        -1.7289
  17   0.0000       0.204279         5.5587
  18   0.0000       0.212061         5.7705
  19   0.0000       0.244959         6.6657
  20   0.0000       0.253897         6.9089
  21   0.0000       0.270567         7.3625

MULLIKEN ATOMIC CHARGES AND SPIN POPULATIONS
--------------------------------------------
   0 C :   -0.071720    0.030344
   1 H :    0.110215   -0.003306
   2 H :    0.086717    0.044917
   3 C :   -0.071656    0.030300
   4 H :    0.086702    0.045109
   5 H :    0.110249   -0.003326
   6 O :   -0.574454   -0.010010
   7 H :   -0.051035    0.438383
   8 O :   -0.574575   -0.010115
   9 H :   -0.050442    0.437703
Sum of atomic charges         :   -1.0000000

LOEWDIN ATOMIC CHARGES AND SPIN POPULATIONS
-------------------------------------------
   0 C :   -0.031015    0.052337
   1 H :    0.028421   -0.001282
   2 H :    0.020112    0.026920
   3 C :   -0.031021    0.052421
   4 H :    0.020120    0.027022
   5 H :    0.028460   -0.001294
   6 O :   -0.475081    0.105164
   7 H :   -0.042709    0.317181
   8 O :   -0.474988    0.104884
   9 H :   -0.042300    0.316647

  Mayer bond orders larger than 0.100000
B(  0-C ,  1-H ) :   0.9196 B(  0-C ,  2-H ) :   0.9163 B(  0-C ,  3-C ) :   0.8951
B(  0-C ,  6-O ) :   0.8821 B(  3-C ,  4-H ) :   0.9161 B(  3-C ,  5-H ) :   0.9197
B(  3-C ,  8-O ) :   0.8818 B(  6-O ,  7-H ) :   0.6313 B(  7-H ,  9-H ) :   0.3287
B(  8-O ,  9-H ) :   0.6319

Dispersion correction           -0.008848095
FINAL SINGLE POINT ENERGY      -230.042776722666

DIPOLE MOMENT
-------------
                                X             Y             Z
Electronic contribution:      0.00247       0.00010       0.00097
Nuclear contribution   :      0.00039      -0.00014      -0.00011
                        -----------------------------------------
Total Dipole Moment    :      0.00286      -0.00004       0.00086
                        -----------------------------------------
Magnitude (a.u.)       :      0.00299
Magnitude (Debye)      :      0.00759

Dispersion correction in the Hessian             ... done   (      0.9 sec)

VIBRATIONAL FREQUENCIES
-----------------------

Scaling factor for frequencies =  1.000000000  (already applied!)

   0:         0.00 cm**-1
   1:         0.00 cm**-1
   2:         0.00 cm**-1
   3:         0.00 cm**-1
   4:         0.00 cm**-1
   5:         0.00 cm**-1
   6:       215.51 cm**-1
   7:       259.83 cm**-1
   8:       277.09 cm**-1
   9:       293.89 cm**-1
  10:       408.71 cm**-1
  11:       819.66 cm**-1
  12:       864.21 cm**-1
  13:       865.16 cm**-1
  14:       978.09 cm**-1
  15:      1045.43 cm**-1
  16:      1091.67 cm**-1
  17:      1163.90 cm**-1
  18:      1259.86 cm**-1
  19:      1267.18 cm**-1
  20:      1301.69 cm**-1
  21:      1325.24 cm**-1
  22:      1507.62 cm**-1
  23:      1533.62 cm**-1
  24:      2213.76 cm**-1
  25:      2665.60 cm**-1
  26:      2930.23 cm**-1
  27:      2952.27 cm**-1
  28:      2957.48 cm**-1
  29:      3006.77 cm**-1

IR SPECTRUM
-----------

 Mode   freq       eps      Int      T**2         TX        TY        TZ
       cm**-1   L/(mol*cm) km/mol    a.u.
----------------------------------------------------------------------------
  6:    215.51   0.007372   37.26  0.010675  ( 0.065077  0.078187  0.018086)
  7:    259.83   0.022735  114.89  0.027305  ( 0.157584 -0.004259  0.049540)
  8:    277.09   0.000228    1.15  0.000257  (-0.015565  0.000263 -0.003837)
  9:    293.89   0.009380   47.40  0.009960  ( 0.053772  0.002563  0.084037)
 10:    408.71   0.000000    0.00  0.000000  (-0.000355 -0.000027 -0.000158)
 11:    819.66   0.018023   91.08  0.006862  (-0.081342  0.015537  0.002003)
 12:    864.21   0.055371  279.82  0.019994  ( 0.140372  0.001858  0.016928)
 13:    865.16   0.003077   15.55  0.001110  (-0.033058 -0.000510 -0.004086)
 14:    978.09   0.000000    0.00  0.000000  ( 0.000050 -0.000061 -0.000059)
 15:   1045.43   0.000000    0.00  0.000000  (-0.000152 -0.000040 -0.000087)
 16:   1091.67   0.016856   85.18  0.004818  (-0.007373  0.037057  0.058230)
 17:   1163.90   0.066827  337.72  0.017918  (-0.008883 -0.063199 -0.117663)
 18:   1259.86   0.000002    0.01  0.000001  ( 0.000447  0.000299  0.000518)
 19:   1267.18   0.018412   93.05  0.004534  ( 0.054513  0.015173  0.036502)
 20:   1301.69   0.000000    0.00  0.000000  ( 0.000222  0.000013  0.000012)
 21:   1325.24   0.000000    0.00  0.000000  (-0.000143 -0.000100 -0.000137)
 22:   1507.62   0.000000    0.00  0.000000  ( 0.000066 -0.000045  0.000020)
 23:   1533.62   0.001332    6.73  0.000271  ( 0.012020 -0.001960  0.011080)
 24:   2213.76   3.928050  19850.75  0.553719  (-0.650152 -0.169949 -0.319591)
 25:   2665.60   0.000197    0.99  0.000023  (-0.004211 -0.001066 -0.002037)
 26:   2930.23   0.000005    0.02  0.000001  ( 0.000453  0.000307 -0.000464)
 27:   2952.27   0.049118  248.22  0.005192  (-0.048574 -0.041243  0.033639)
 28:   2957.48   0.000040    0.20  0.000004  (-0.001719 -0.000659  0.000909)
 29:   3006.77   0.077214  390.21  0.008014  (-0.071050  0.054455 -0.000662)

--------------------------
THERMOCHEMISTRY AT 298.15K
--------------------------

Temperature         ... 298.15 K
Pressure            ... 1.00 atm
Total Mass          ... 62.07 AMU

Throughout the following assumptions are being made:
  (1) The electronic state is orbitally nondegenerate
      but the spin degeneracy is treated
  (2) There are no thermally accessible electronically excited states
  (3) Hindered rotations indicated by low frequency modes are not
      treated as such but are treated as vibrations and this may
      cause some error
  (4) All equations used are the standard statistical mechanics
      equations for an ideal gas
  (5) All vibrations are strictly harmonic

freq.     215.51  E(vib)   ...       0.34
freq.     259.83  E(vib)   ...       0.30
freq.     277.09  E(vib)   ...       0.28
freq.     293.89  E(vib)   ...       0.27
freq.     408.71  E(vib)   ...       0.19
freq.     819.66  E(vib)   ...       0.05
freq.     864.21  E(vib)   ...       0.04
freq.     865.16  E(vib)   ...       0.04
freq.     978.09  E(vib)   ...       0.03
freq.    1045.43  E(vib)   ...       0.02
freq.    1091.67  E(vib)   ...       0.02
freq.    1163.90  E(vib)   ...       0.01
freq.    1259.86  E(vib)   ...       0.01
freq.    1267.18  E(vib)   ...       0.01
freq.    1301.69  E(vib)   ...       0.01
freq.    1325.24  E(vib)   ...       0.01
freq.    1507.62  E(vib)   ...       0.00
freq.    1533.62  E(vib)   ...       0.00
freq.    2213.76  E(vib)   ...       0.00
freq.    2665.60  E(vib)   ...       0.00
freq.    2930.23  E(vib)   ...       0.00
freq.    2952.27  E(vib)   ...       0.00
freq.    2957.48  E(vib)   ...       0.00
freq.    3006.77  E(vib)   ...       0.00

------------
INNER ENERGY
------------

The inner energy is: U= E(el) + E(ZPE) + E(vib) + E(rot) + E(trans)
    E(el)   - is the total energy from the electronic structure calculation
              = E(kin-el) + E(nuc-el) + E(el-el) + E(nuc-nuc)
    E(ZPE)  - the the zero temperature vibrational energy from the frequency calculation
    E(vib)  - the the finite temperature correction to E(ZPE) due to population
              of excited vibrational states
    E(rot)  - is the rotational thermal energy
    E(trans)- is the translational thermal energy

Summary of contributions to the inner energy U:
Electronic energy                ...   -230.04277672 Eh
Zero point energy                ...      0.07564533 Eh      47.47 kcal/mol
Thermal vibrational correction   ...      0.00255705 Eh       1.60 kcal/mol
Thermal rotational correction    ...      0.00141627 Eh       0.89 kcal/mol
Thermal translational correction ...      0.00141627 Eh       0.89 kcal/mol
-----------------------------------------------------------------------
Total thermal energy                   -229.96174180 Eh

Summary of corrections to the electronic energy:
(perhaps to be used in another calculation)
Total thermal correction                  0.00538959 Eh       3.38 kcal/mol
Non-thermal (ZPE) correction              0.07564533 Eh      47.47 kcal/mol
-----------------------------------------------------------------------
Total correction                          0.08103493 Eh      50.85 kcal/mol

--------
ENTHALPY
--------

The enthalpy is H = U + kB*T
                kB is Boltzmann's constant
Total free energy                 ...   -229.96174180 Eh
Thermal Enthalpy correction       ...      0.00094421 Eh       0.59 kcal/mol
-----------------------------------------------------------------------
Total Enthalpy                    ...   -229.96079759 Eh

Note: Only C1 symmetry has been detected, increase convergence thresholds
      if your molecule has a higher symmetry. Symmetry factor of 1.0 is
      used for the rotational entropy correction.

Note: Rotational entropy computed according to Herzberg
Infrared and Raman Spectra, Chapter V,1, Van Nostrand Reinhold, 1945
Point Group:  C1, Symmetry Number:   1
Rotational constants in cm-1:     0.947029     0.125530     0.117002

Vibrational entropy computed according to the QRRHO of S. Grimme
Chem.Eur.J. 2012 18 9955

-------
ENTROPY
-------

The entropy contributions are T*S = T*(S(el)+S(vib)+S(rot)+S(trans))
     S(el)   - electronic entropy
     S(vib)  - vibrational entropy
     S(rot)  - rotational entropy
     S(trans)- translational entropy
The entropies will be listed as multiplied by the temperature to get
units of energy

Electronic entropy                ...      0.00065446 Eh      0.41 kcal/mol
Vibrational entropy               ...      0.00406629 Eh      2.55 kcal/mol
Rotational entropy                ...      0.01152909 Eh      7.23 kcal/mol
Translational entropy             ...      0.01819577 Eh     11.42 kcal/mol
-----------------------------------------------------------------------
Final entropy term                ...      0.03444561 Eh     21.61 kcal/mol

In case the symmetry of your molecule has not been determined correctly
or in case you have a reason to use a different symmetry number we print
out the resulting rotational entropy values for sn=1,12 :
 --------------------------------------------------------
|  sn= 1 | S(rot)=       0.01152909 Eh      7.23 kcal/mol|
|  sn= 2 | S(rot)=       0.01087464 Eh      6.82 kcal/mol|
|  sn= 3 | S(rot)=       0.01049180 Eh      6.58 kcal/mol|
|  sn= 4 | S(rot)=       0.01022018 Eh      6.41 kcal/mol|
|  sn= 5 | S(rot)=       0.01000949 Eh      6.28 kcal/mol|
|  sn= 6 | S(rot)=       0.00983735 Eh      6.17 kcal/mol|
|  sn= 7 | S(rot)=       0.00969180 Eh      6.08 kcal/mol|
|  sn= 8 | S(rot)=       0.00956572 Eh      6.00 kcal/mol|
|  sn= 9 | S(rot)=       0.00945452 Eh      5.93 kcal/mol|
|  sn=10 | S(rot)=       0.00935504 Eh      5.87 kcal/mol|
|  sn=11 | S(rot)=       0.00926505 Eh      5.81 kcal/mol|
|  sn=12 | S(rot)=       0.00918289 Eh      5.76 kcal/mol|
 --------------------------------------------------------

-------------------
GIBBS FREE ENERGY
-------------------

The Gibbs free energy is G = H - T*S

Total enthalpy                    ...   -229.96079759 Eh
Total entropy correction          ...     -0.03444561 Eh    -21.61 kcal/mol
-----------------------------------------------------------------------
Final Gibbs free energy         ...   -229.99524320 Eh

For completeness - the Gibbs free energy minus the electronic energy
G-E(el)                           ...      0.04753353 Eh     29.83 kcal/mol

                             ****ORCA TERMINATED NORMALLY****
TOTAL RUN TIME: 0 days 0 hours 9 minutes 37 seconds 739 msec
