                         Program Version 5.0.3 -  RELEASE  -
|  1> !B3LYP D3BJ 6-311G
|  2> !RIJCOSX AutoAux printbasis
|  3> !Opt Freq
|  4> !DEFGRID3 TightSCF
|  5> *xyz 1 2
|  6> C       -1.815527635      0.000000000     -1.701852812
|  7> H       -1.815527635      1.019690000     -2.101108812
|  8> H       -0.932449635     -0.509845000     -2.101108811
|  9> C       -1.815527635      0.000000000     -0.171864812
| 10> H       -2.698605635      0.509845000      0.227391188
| 11> H       -1.815527635     -1.019690000      0.227391188
| 12> O       -2.976763524     -0.670439431     -2.226869171
| 13> H       -3.617938706     -0.008421754     -2.516756404
| 14> O       -0.654291745      0.670439431      0.353151548
| 15> H       -0.788200812      1.625327153      0.292608766
| 16> **                         ****END OF INPUT****
 Total Charge           Charge          ....    1
 Multiplicity           Mult            ....    2
 Number of Electrons    NEL             ....   33
Dispersion correction           -0.008699202
FINAL SINGLE POINT ENERGY      -229.759633716901
Dispersion correction            ... done
Dispersion correction           -0.008665261
FINAL SINGLE POINT ENERGY      -229.768031451832
Dispersion correction            ... done
Dispersion correction           -0.008666493
FINAL SINGLE POINT ENERGY      -229.774519116734
Dispersion correction            ... done
FINAL SINGLE POINT ENERGY      -229.777133888382
FINAL SINGLE POINT ENERGY      -229.778577224602
FINAL SINGLE POINT ENERGY      -229.779218905792
FINAL SINGLE POINT ENERGY      -229.779420858225
FINAL SINGLE POINT ENERGY      -229.779493277055
FINAL SINGLE POINT ENERGY      -229.779521481854
Dispersion correction           -0.008582858
FINAL SINGLE POINT ENERGY      -229.779532920222
Dispersion correction            ... done
Dispersion correction           -0.008583262
FINAL SINGLE POINT ENERGY      -229.779536326336
Dispersion correction            ... done
                    ***********************HURRAY********************

CARTESIAN COORDINATES (ANGSTROEM)
---------------------------------
  C     -1.839433    0.041121   -1.904733
  H     -1.854339    1.096781   -2.163627
  H     -0.911796   -0.498112   -2.048191
  C     -1.832048    0.078067   -0.035549
  H     -2.729355    0.645904    0.197033
  H     -1.856146   -0.990554    0.136020
  O     -2.908118   -0.707636   -2.270386
  H     -3.737078   -0.232112   -2.484955
  O     -0.641693    0.611575    0.331874
  H     -0.620354    1.571871    0.523495

 Multiplicity           Mult            ....    2
 Number of Electrons    NEL             ....   33
 Basis Dimension        Dim             ....   70

ORBITAL ENERGIES
----------------
                 SPIN UP ORBITALS
  NO   OCC          E(Eh)            E(eV)
   0   1.0000     -19.416726      -528.3560
   1   1.0000     -19.416715      -528.3557
   2   1.0000     -10.497590      -285.6540
   3   1.0000     -10.497541      -285.6526
   4   1.0000      -1.331746       -36.2387
   5   1.0000      -1.325088       -36.0575
   6   1.0000      -0.976582       -26.5741
   7   1.0000      -0.908260       -24.7150
   8   1.0000      -0.796071       -21.6622
   9   1.0000      -0.786899       -21.4126
  10   1.0000      -0.721484       -19.6326
  11   1.0000      -0.694371       -18.8948
  12   1.0000      -0.685458       -18.6523
  13   1.0000      -0.611103       -16.6289
  14   1.0000      -0.588403       -16.0113
  15   1.0000      -0.580952       -15.8085
  16   1.0000      -0.495174       -13.4744
  17   0.0000      -0.184049        -5.0082
  18   0.0000      -0.177702        -4.8355
  19   0.0000      -0.164086        -4.4650
  20   0.0000      -0.112366        -3.0576
  21   0.0000      -0.097156        -2.6438

                 SPIN DOWN ORBITALS
  NO   OCC          E(Eh)            E(eV)
   0   1.0000     -19.408608      -528.1351
   1   1.0000     -19.408599      -528.1348
   2   1.0000     -10.493960      -285.5552
   3   1.0000     -10.493941      -285.5547
   4   1.0000      -1.314656       -35.7736
   5   1.0000      -1.308076       -35.5946
   6   1.0000      -0.959513       -26.1097
   7   1.0000      -0.898187       -24.4409
   8   1.0000      -0.788422       -21.4541
   9   1.0000      -0.778091       -21.1729
  10   1.0000      -0.714505       -19.4427
  11   1.0000      -0.685466       -18.6525
  12   1.0000      -0.646460       -17.5911
  13   1.0000      -0.579668       -15.7736
  14   1.0000      -0.573953       -15.6181
  15   1.0000      -0.561162       -15.2700
  16   0.0000      -0.394387       -10.7318
  17   0.0000      -0.176335        -4.7983
  18   0.0000      -0.175244        -4.7686
  19   0.0000      -0.136746        -3.7210
  20   0.0000      -0.108190        -2.9440

MULLIKEN ATOMIC CHARGES AND SPIN POPULATIONS
--------------------------------------------
   0 C :   -0.099668    0.215522
   1 H :    0.252270    0.007752
   2 H :    0.302594    0.013834
   3 C :   -0.099895    0.215888
   4 H :    0.252232    0.007521
   5 H :    0.302632    0.014040
   6 O :   -0.405045    0.273387
   7 H :    0.450002   -0.010653
   8 O :   -0.405171    0.273356
   9 H :    0.450049   -0.010646
Sum of atomic charges         :    1.0000000

LOEWDIN ATOMIC CHARGES AND SPIN POPULATIONS
-------------------------------------------
   0 C :    0.088050    0.211216
   1 H :    0.111345    0.007501
   2 H :    0.137405    0.011368
   3 C :    0.087995    0.211537
   4 H :    0.111323    0.007341
   5 H :    0.137428    0.011519
   6 O :   -0.154611    0.277452
   7 H :    0.317873   -0.007682
   8 O :   -0.154707    0.277427
   9 H :    0.317898   -0.007678

  Mayer bond orders larger than 0.100000
B(  0-C ,  1-H ) :   0.8782 B(  0-C ,  2-H ) :   0.8631 B(  0-C ,  3-C ) :   0.5190
B(  0-C ,  6-O ) :   1.1054 B(  3-C ,  4-H ) :   0.8783 B(  3-C ,  5-H ) :   0.8630
B(  3-C ,  8-O ) :   1.1053 B(  6-O ,  7-H ) :   0.7490 B(  8-O ,  9-H ) :   0.7489

Dispersion correction           -0.008583030
FINAL SINGLE POINT ENERGY      -229.779537203797

DIPOLE MOMENT
-------------
                                X             Y             Z
Electronic contribution:      0.01473      -0.02646      -0.00142
Nuclear contribution   :     -0.76352       1.35696      -0.01896
                        -----------------------------------------
Total Dipole Moment    :     -0.74878       1.33050      -0.02038
                        -----------------------------------------
Magnitude (a.u.)       :      1.52686
Magnitude (Debye)      :      3.88098

Dispersion correction in the Hessian             ... done   (      1.0 sec)

VIBRATIONAL FREQUENCIES
-----------------------

Scaling factor for frequencies =  1.000000000  (already applied!)

   0:         0.00 cm**-1
   1:         0.00 cm**-1
   2:         0.00 cm**-1
   3:         0.00 cm**-1
   4:         0.00 cm**-1
   5:         0.00 cm**-1
   6:       114.75 cm**-1
   7:       208.28 cm**-1
   8:       273.70 cm**-1
   9:       454.41 cm**-1
  10:       498.07 cm**-1
  11:       536.06 cm**-1
  12:       858.73 cm**-1
  13:       963.28 cm**-1
  14:      1087.77 cm**-1
  15:      1125.56 cm**-1
  16:      1149.28 cm**-1
  17:      1199.78 cm**-1
  18:      1239.90 cm**-1
  19:      1287.15 cm**-1
  20:      1361.18 cm**-1
  21:      1365.20 cm**-1
  22:      1514.98 cm**-1
  23:      1535.37 cm**-1
  24:      3081.00 cm**-1
  25:      3081.50 cm**-1
  26:      3207.95 cm**-1
  27:      3224.93 cm**-1
  28:      3600.77 cm**-1
  29:      3610.34 cm**-1

IR SPECTRUM
-----------

 Mode   freq       eps      Int      T**2         TX        TY        TZ
       cm**-1   L/(mol*cm) km/mol    a.u.
----------------------------------------------------------------------------
  6:    114.75   0.000801    4.05  0.002178  (-0.022898  0.040664 -0.000559)
  7:    208.28   0.000002    0.01  0.000003  (-0.000823  0.001374  0.000131)
  8:    273.70   0.001947    9.84  0.002220  (-0.012513 -0.006330  0.044982)
  9:    454.41   0.000009    0.05  0.000006  ( 0.001340 -0.002097 -0.000127)
 10:    498.07   0.000273    1.38  0.000171  ( 0.006317 -0.011388  0.001299)
 11:    536.06   0.071466  361.16  0.041603  (-0.025644 -0.011201  0.202040)
 12:    858.73   0.000219    1.10  0.000079  ( 0.004443 -0.007724  0.000195)
 13:    963.28   0.017832   90.12  0.005777  ( 0.065071  0.036421 -0.014701)
 14:   1087.77   0.001901    9.61  0.000545  (-0.011595  0.020268 -0.000341)
 15:   1125.56   0.051747  261.51  0.014347  (-0.089289 -0.051189 -0.061272)
 16:   1149.28   0.000773    3.91  0.000210  (-0.006637  0.012880  0.000191)
 17:   1199.78   0.023297  117.73  0.006060  ( 0.057445  0.032972  0.040896)
 18:   1239.90   0.000379    1.91  0.000095  (-0.004763  0.008519 -0.000090)
 19:   1287.15   0.002333   11.79  0.000566  ( 0.017963  0.010293  0.011704)
 20:   1361.18   0.007354   37.17  0.001686  (-0.035978 -0.019782 -0.000554)
 21:   1365.20   0.002378   12.02  0.000544  ( 0.010897 -0.020611  0.000293)
 22:   1514.98   0.001033    5.22  0.000213  ( 0.012641  0.007145  0.001366)
 23:   1535.37   0.000108    0.54  0.000022  (-0.002373  0.004028 -0.000085)
 24:   3081.00   0.001499    7.58  0.000152  (-0.003109 -0.001150 -0.011870)
 25:   3081.50   0.000588    2.97  0.000060  (-0.003487  0.006816  0.000942)
 26:   3207.95   0.001208    6.11  0.000118  ( 0.001554  0.000819 -0.010698)
 27:   3224.93   0.000812    4.10  0.000079  ( 0.004373 -0.007711  0.000006)
 28:   3600.77   0.082078  414.79  0.007113  (-0.059820 -0.034490 -0.048429)
 29:   3610.34   0.015934   80.53  0.001377  ( 0.018213 -0.032331  0.000551)

--------------------------
THERMOCHEMISTRY AT 298.15K
--------------------------

Temperature         ... 298.15 K
Pressure            ... 1.00 atm
Total Mass          ... 62.07 AMU

Throughout the following assumptions are being made:
  (1) The electronic state is orbitally nondegenerate
      but the spin degeneracy is treated
  (2) There are no thermally accessible electronically excited states
  (3) Hindered rotations indicated by low frequency modes are not
      treated as such but are treated as vibrations and this may
      cause some error
  (4) All equations used are the standard statistical mechanics
      equations for an ideal gas
  (5) All vibrations are strictly harmonic

freq.     114.75  E(vib)   ...       0.44
freq.     208.28  E(vib)   ...       0.34
freq.     273.70  E(vib)   ...       0.28
freq.     454.41  E(vib)   ...       0.16
freq.     498.07  E(vib)   ...       0.14
freq.     536.06  E(vib)   ...       0.12
freq.     858.73  E(vib)   ...       0.04
freq.     963.28  E(vib)   ...       0.03
freq.    1087.77  E(vib)   ...       0.02
freq.    1125.56  E(vib)   ...       0.01
freq.    1149.28  E(vib)   ...       0.01
freq.    1199.78  E(vib)   ...       0.01
freq.    1239.90  E(vib)   ...       0.01
freq.    1287.15  E(vib)   ...       0.01
freq.    1361.18  E(vib)   ...       0.01
freq.    1365.20  E(vib)   ...       0.01
freq.    1514.98  E(vib)   ...       0.00
freq.    1535.37  E(vib)   ...       0.00
freq.    3081.00  E(vib)   ...       0.00
freq.    3081.50  E(vib)   ...       0.00
freq.    3207.95  E(vib)   ...       0.00
freq.    3224.93  E(vib)   ...       0.00
freq.    3600.77  E(vib)   ...       0.00
freq.    3610.34  E(vib)   ...       0.00

------------
INNER ENERGY
------------

The inner energy is: U= E(el) + E(ZPE) + E(vib) + E(rot) + E(trans)
    E(el)   - is the total energy from the electronic structure calculation
              = E(kin-el) + E(nuc-el) + E(el-el) + E(nuc-nuc)
    E(ZPE)  - the the zero temperature vibrational energy from the frequency calculation
    E(vib)  - the the finite temperature correction to E(ZPE) due to population
              of excited vibrational states
    E(rot)  - is the rotational thermal energy
    E(trans)- is the translational thermal energy

Summary of contributions to the inner energy U:
Electronic energy                ...   -229.77953720 Eh
Zero point energy                ...      0.08333530 Eh      52.29 kcal/mol
Thermal vibrational correction   ...      0.00263697 Eh       1.65 kcal/mol
Thermal rotational correction    ...      0.00141627 Eh       0.89 kcal/mol
Thermal translational correction ...      0.00141627 Eh       0.89 kcal/mol
-----------------------------------------------------------------------
Total thermal energy                   -229.69073239 Eh

Summary of corrections to the electronic energy:
(perhaps to be used in another calculation)
Total thermal correction                  0.00546952 Eh       3.43 kcal/mol
Non-thermal (ZPE) correction              0.08333530 Eh      52.29 kcal/mol
-----------------------------------------------------------------------
Total correction                          0.08880482 Eh      55.73 kcal/mol

--------
ENTHALPY
--------

The enthalpy is H = U + kB*T
                kB is Boltzmann's constant
Total free energy                 ...   -229.69073239 Eh
Thermal Enthalpy correction       ...      0.00094421 Eh       0.59 kcal/mol
-----------------------------------------------------------------------
Total Enthalpy                    ...   -229.68978818 Eh

Note: Only C1 symmetry has been detected, increase convergence thresholds
      if your molecule has a higher symmetry. Symmetry factor of 1.0 is
      used for the rotational entropy correction.

Note: Rotational entropy computed according to Herzberg
Infrared and Raman Spectra, Chapter V,1, Van Nostrand Reinhold, 1945
Point Group:  C1, Symmetry Number:   1
Rotational constants in cm-1:     0.861876     0.122458     0.114254

Vibrational entropy computed according to the QRRHO of S. Grimme
Chem.Eur.J. 2012 18 9955

-------
ENTROPY
-------

The entropy contributions are T*S = T*(S(el)+S(vib)+S(rot)+S(trans))
     S(el)   - electronic entropy
     S(vib)  - vibrational entropy
     S(rot)  - rotational entropy
     S(trans)- translational entropy
The entropies will be listed as multiplied by the temperature to get
units of energy

Electronic entropy                ...      0.00065446 Eh      0.41 kcal/mol
Vibrational entropy               ...      0.00441504 Eh      2.77 kcal/mol
Rotational entropy                ...      0.01159649 Eh      7.28 kcal/mol
Translational entropy             ...      0.01819577 Eh     11.42 kcal/mol
-----------------------------------------------------------------------
Final entropy term                ...      0.03486175 Eh     21.88 kcal/mol

In case the symmetry of your molecule has not been determined correctly
or in case you have a reason to use a different symmetry number we print
out the resulting rotational entropy values for sn=1,12 :
 --------------------------------------------------------
|  sn= 1 | S(rot)=       0.01159649 Eh      7.28 kcal/mol|
|  sn= 2 | S(rot)=       0.01094203 Eh      6.87 kcal/mol|
|  sn= 3 | S(rot)=       0.01055920 Eh      6.63 kcal/mol|
|  sn= 4 | S(rot)=       0.01028757 Eh      6.46 kcal/mol|
|  sn= 5 | S(rot)=       0.01007689 Eh      6.32 kcal/mol|
|  sn= 6 | S(rot)=       0.00990474 Eh      6.22 kcal/mol|
|  sn= 7 | S(rot)=       0.00975919 Eh      6.12 kcal/mol|
|  sn= 8 | S(rot)=       0.00963312 Eh      6.04 kcal/mol|
|  sn= 9 | S(rot)=       0.00952191 Eh      5.98 kcal/mol|
|  sn=10 | S(rot)=       0.00942243 Eh      5.91 kcal/mol|
|  sn=11 | S(rot)=       0.00933244 Eh      5.86 kcal/mol|
|  sn=12 | S(rot)=       0.00925028 Eh      5.80 kcal/mol|
 --------------------------------------------------------

-------------------
GIBBS FREE ENERGY
-------------------

The Gibbs free energy is G = H - T*S

Total enthalpy                    ...   -229.68978818 Eh
Total entropy correction          ...     -0.03486175 Eh    -21.88 kcal/mol
-----------------------------------------------------------------------
Final Gibbs free energy         ...   -229.72464993 Eh

For completeness - the Gibbs free energy minus the electronic energy
G-E(el)                           ...      0.05488728 Eh     34.44 kcal/mol

                             ****ORCA TERMINATED NORMALLY****
TOTAL RUN TIME: 0 days 0 hours 5 minutes 2 seconds 226 msec
